# vtk DataFile Version 3.0
#This file was generated by the deal.II library on 2018/11/18 at 20:16:58
ASCII
DATASET UNSTRUCTURED_GRID

POINTS 2400 double
0 0 0
0.002 0 0
0 0.002 0
0.002 0.002 0
0.002 0 0
0.004 0 0
0.002 0.002 0
0.004 0.002 0
0.004 0 0
0.006 0 0
0.004 0.002 0
0.006 0.002 0
0.006 0 0
0.008 0 0
0.006 0.002 0
0.008 0.002 0
0.008 0 0
0.01 0 0
0.008 0.002 0
0.01 0.002 0
0.01 0 0
0.012 0 0
0.01 0.002 0
0.012 0.002 0
0.012 0 0
0.014 0 0
0.012 0.002 0
0.014 0.002 0
0.014 0 0
0.016 0 0
0.014 0.002 0
0.016 0.002 0
0.016 0 0
0.018 0 0
0.016 0.002 0
0.018 0.002 0
0.018 0 0
0.02 0 0
0.018 0.002 0
0.02 0.002 0
0.02 0 0
0.022 0 0
0.02 0.002 0
0.022 0.002 0
0.022 0 0
0.024 0 0
0.022 0.002 0
0.024 0.002 0
0.024 0 0
0.026 0 0
0.024 0.002 0
0.026 0.002 0
0.026 0 0
0.028 0 0
0.026 0.002 0
0.028 0.002 0
0.028 0 0
0.03 0 0
0.028 0.002 0
0.03 0.002 0
0 0.002 0
0.002 0.002 0
0 0.004 0
0.002 0.004 0
0.002 0.002 0
0.004 0.002 0
0.002 0.004 0
0.004 0.004 0
0.004 0.002 0
0.006 0.002 0
0.004 0.004 0
0.006 0.004 0
0.006 0.002 0
0.008 0.002 0
0.006 0.004 0
0.008 0.004 0
0.008 0.002 0
0.01 0.002 0
0.008 0.004 0
0.01 0.004 0
0.01 0.002 0
0.012 0.002 0
0.01 0.004 0
0.012 0.004 0
0.012 0.002 0
0.014 0.002 0
0.012 0.004 0
0.014 0.004 0
0.014 0.002 0
0.016 0.002 0
0.014 0.004 0
0.016 0.004 0
0.016 0.002 0
0.018 0.002 0
0.016 0.004 0
0.018 0.004 0
0.018 0.002 0
0.02 0.002 0
0.018 0.004 0
0.02 0.004 0
0.02 0.002 0
0.022 0.002 0
0.02 0.004 0
0.022 0.004 0
0.022 0.002 0
0.024 0.002 0
0.022 0.004 0
0.024 0.004 0
0.024 0.002 0
0.026 0.002 0
0.024 0.004 0
0.026 0.004 0
0.026 0.002 0
0.028 0.002 0
0.026 0.004 0
0.028 0.004 0
0.028 0.002 0
0.03 0.002 0
0.028 0.004 0
0.03 0.004 0
0 0.004 0
0.002 0.004 0
0 0.006 0
0.002 0.006 0
0.002 0.004 0
0.004 0.004 0
0.002 0.006 0
0.004 0.006 0
0.004 0.004 0
0.006 0.004 0
0.004 0.006 0
0.006 0.006 0
0.006 0.004 0
0.008 0.004 0
0.006 0.006 0
0.008 0.006 0
0.008 0.004 0
0.01 0.004 0
0.008 0.006 0
0.01 0.006 0
0.01 0.004 0
0.012 0.004 0
0.01 0.006 0
0.012 0.006 0
0.012 0.004 0
0.014 0.004 0
0.012 0.006 0
0.014 0.006 0
0.014 0.004 0
0.016 0.004 0
0.014 0.006 0
0.016 0.006 0
0.016 0.004 0
0.018 0.004 0
0.016 0.006 0
0.018 0.006 0
0.018 0.004 0
0.02 0.004 0
0.018 0.006 0
0.02 0.006 0
0.02 0.004 0
0.022 0.004 0
0.02 0.006 0
0.022 0.006 0
0.022 0.004 0
0.024 0.004 0
0.022 0.006 0
0.024 0.006 0
0.024 0.004 0
0.026 0.004 0
0.024 0.006 0
0.026 0.006 0
0.026 0.004 0
0.028 0.004 0
0.026 0.006 0
0.028 0.006 0
0.028 0.004 0
0.03 0.004 0
0.028 0.006 0
0.03 0.006 0
0 0.006 0
0.002 0.006 0
0 0.008 0
0.002 0.008 0
0.002 0.006 0
0.004 0.006 0
0.002 0.008 0
0.004 0.008 0
0.004 0.006 0
0.006 0.006 0
0.004 0.008 0
0.006 0.008 0
0.006 0.006 0
0.008 0.006 0
0.006 0.008 0
0.008 0.008 0
0.008 0.006 0
0.01 0.006 0
0.008 0.008 0
0.01 0.008 0
0.01 0.006 0
0.012 0.006 0
0.01 0.008 0
0.012 0.008 0
0.012 0.006 0
0.014 0.006 0
0.012 0.008 0
0.014 0.008 0
0.014 0.006 0
0.016 0.006 0
0.014 0.008 0
0.016 0.008 0
0.016 0.006 0
0.018 0.006 0
0.016 0.008 0
0.018 0.008 0
0.018 0.006 0
0.02 0.006 0
0.018 0.008 0
0.02 0.008 0
0.02 0.006 0
0.022 0.006 0
0.02 0.008 0
0.022 0.008 0
0.022 0.006 0
0.024 0.006 0
0.022 0.008 0
0.024 0.008 0
0.024 0.006 0
0.026 0.006 0
0.024 0.008 0
0.026 0.008 0
0.026 0.006 0
0.028 0.006 0
0.026 0.008 0
0.028 0.008 0
0.028 0.006 0
0.03 0.006 0
0.028 0.008 0
0.03 0.008 0
0 0.008 0
0.002 0.008 0
0 0.01 0
0.002 0.01 0
0.002 0.008 0
0.004 0.008 0
0.002 0.01 0
0.004 0.01 0
0.004 0.008 0
0.006 0.008 0
0.004 0.01 0
0.006 0.01 0
0.006 0.008 0
0.008 0.008 0
0.006 0.01 0
0.008 0.01 0
0.008 0.008 0
0.01 0.008 0
0.008 0.01 0
0.01 0.01 0
0.01 0.008 0
0.012 0.008 0
0.01 0.01 0
0.012 0.01 0
0.012 0.008 0
0.014 0.008 0
0.012 0.01 0
0.014 0.01 0
0.014 0.008 0
0.016 0.008 0
0.014 0.01 0
0.016 0.01 0
0.016 0.008 0
0.018 0.008 0
0.016 0.01 0
0.018 0.01 0
0.018 0.008 0
0.02 0.008 0
0.018 0.01 0
0.02 0.01 0
0.02 0.008 0
0.022 0.008 0
0.02 0.01 0
0.022 0.01 0
0.022 0.008 0
0.024 0.008 0
0.022 0.01 0
0.024 0.01 0
0.024 0.008 0
0.026 0.008 0
0.024 0.01 0
0.026 0.01 0
0.026 0.008 0
0.028 0.008 0
0.026 0.01 0
0.028 0.01 0
0.028 0.008 0
0.03 0.008 0
0.028 0.01 0
0.03 0.01 0
0 0.01 0
0.002 0.01 0
0 0.012 0
0.002 0.012 0
0.002 0.01 0
0.004 0.01 0
0.002 0.012 0
0.004 0.012 0
0.004 0.01 0
0.006 0.01 0
0.004 0.012 0
0.006 0.012 0
0.006 0.01 0
0.008 0.01 0
0.006 0.012 0
0.008 0.012 0
0.008 0.01 0
0.01 0.01 0
0.008 0.012 0
0.01 0.012 0
0.01 0.01 0
0.012 0.01 0
0.01 0.012 0
0.012 0.012 0
0.012 0.01 0
0.014 0.01 0
0.012 0.012 0
0.014 0.012 0
0.014 0.01 0
0.016 0.01 0
0.014 0.012 0
0.016 0.012 0
0.016 0.01 0
0.018 0.01 0
0.016 0.012 0
0.018 0.012 0
0.018 0.01 0
0.02 0.01 0
0.018 0.012 0
0.02 0.012 0
0.02 0.01 0
0.022 0.01 0
0.02 0.012 0
0.022 0.012 0
0.022 0.01 0
0.024 0.01 0
0.022 0.012 0
0.024 0.012 0
0.024 0.01 0
0.026 0.01 0
0.024 0.012 0
0.026 0.012 0
0.026 0.01 0
0.028 0.01 0
0.026 0.012 0
0.028 0.012 0
0.028 0.01 0
0.03 0.01 0
0.028 0.012 0
0.03 0.012 0
0 0.012 0
0.002 0.012 0
0 0.014 0
0.002 0.014 0
0.002 0.012 0
0.004 0.012 0
0.002 0.014 0
0.004 0.014 0
0.004 0.012 0
0.006 0.012 0
0.004 0.014 0
0.006 0.014 0
0.006 0.012 0
0.008 0.012 0
0.006 0.014 0
0.008 0.014 0
0.008 0.012 0
0.01 0.012 0
0.008 0.014 0
0.01 0.014 0
0.01 0.012 0
0.012 0.012 0
0.01 0.014 0
0.012 0.014 0
0.012 0.012 0
0.014 0.012 0
0.012 0.014 0
0.014 0.014 0
0.014 0.012 0
0.016 0.012 0
0.014 0.014 0
0.016 0.014 0
0.016 0.012 0
0.018 0.012 0
0.016 0.014 0
0.018 0.014 0
0.018 0.012 0
0.02 0.012 0
0.018 0.014 0
0.02 0.014 0
0.02 0.012 0
0.022 0.012 0
0.02 0.014 0
0.022 0.014 0
0.022 0.012 0
0.024 0.012 0
0.022 0.014 0
0.024 0.014 0
0.024 0.012 0
0.026 0.012 0
0.024 0.014 0
0.026 0.014 0
0.026 0.012 0
0.028 0.012 0
0.026 0.014 0
0.028 0.014 0
0.028 0.012 0
0.03 0.012 0
0.028 0.014 0
0.03 0.014 0
0 0.014 0
0.002 0.014 0
0 0.016 0
0.002 0.016 0
0.002 0.014 0
0.004 0.014 0
0.002 0.016 0
0.004 0.016 0
0.004 0.014 0
0.006 0.014 0
0.004 0.016 0
0.006 0.016 0
0.006 0.014 0
0.008 0.014 0
0.006 0.016 0
0.008 0.016 0
0.008 0.014 0
0.01 0.014 0
0.008 0.016 0
0.01 0.016 0
0.01 0.014 0
0.012 0.014 0
0.01 0.016 0
0.012 0.016 0
0.012 0.014 0
0.014 0.014 0
0.012 0.016 0
0.014 0.016 0
0.014 0.014 0
0.016 0.014 0
0.014 0.016 0
0.016 0.016 0
0.016 0.014 0
0.018 0.014 0
0.016 0.016 0
0.018 0.016 0
0.018 0.014 0
0.02 0.014 0
0.018 0.016 0
0.02 0.016 0
0.02 0.014 0
0.022 0.014 0
0.02 0.016 0
0.022 0.016 0
0.022 0.014 0
0.024 0.014 0
0.022 0.016 0
0.024 0.016 0
0.024 0.014 0
0.026 0.014 0
0.024 0.016 0
0.026 0.016 0
0.026 0.014 0
0.028 0.014 0
0.026 0.016 0
0.028 0.016 0
0.028 0.014 0
0.03 0.014 0
0.028 0.016 0
0.03 0.016 0
0 0.016 0
0.002 0.016 0
0 0.018 0
0.002 0.018 0
0.002 0.016 0
0.004 0.016 0
0.002 0.018 0
0.004 0.018 0
0.004 0.016 0
0.006 0.016 0
0.004 0.018 0
0.006 0.018 0
0.006 0.016 0
0.008 0.016 0
0.006 0.018 0
0.008 0.018 0
0.008 0.016 0
0.01 0.016 0
0.008 0.018 0
0.01 0.018 0
0.01 0.016 0
0.012 0.016 0
0.01 0.018 0
0.012 0.018 0
0.012 0.016 0
0.014 0.016 0
0.012 0.018 0
0.014 0.018 0
0.014 0.016 0
0.016 0.016 0
0.014 0.018 0
0.016 0.018 0
0.016 0.016 0
0.018 0.016 0
0.016 0.018 0
0.018 0.018 0
0.018 0.016 0
0.02 0.016 0
0.018 0.018 0
0.02 0.018 0
0.02 0.016 0
0.022 0.016 0
0.02 0.018 0
0.022 0.018 0
0.022 0.016 0
0.024 0.016 0
0.022 0.018 0
0.024 0.018 0
0.024 0.016 0
0.026 0.016 0
0.024 0.018 0
0.026 0.018 0
0.026 0.016 0
0.028 0.016 0
0.026 0.018 0
0.028 0.018 0
0.028 0.016 0
0.03 0.016 0
0.028 0.018 0
0.03 0.018 0
0 0.018 0
0.002 0.018 0
0 0.02 0
0.002 0.02 0
0.002 0.018 0
0.004 0.018 0
0.002 0.02 0
0.004 0.02 0
0.004 0.018 0
0.006 0.018 0
0.004 0.02 0
0.006 0.02 0
0.006 0.018 0
0.008 0.018 0
0.006 0.02 0
0.008 0.02 0
0.008 0.018 0
0.01 0.018 0
0.008 0.02 0
0.01 0.02 0
0.01 0.018 0
0.012 0.018 0
0.01 0.02 0
0.012 0.02 0
0.012 0.018 0
0.014 0.018 0
0.012 0.02 0
0.014 0.02 0
0.014 0.018 0
0.016 0.018 0
0.014 0.02 0
0.016 0.02 0
0.016 0.018 0
0.018 0.018 0
0.016 0.02 0
0.018 0.02 0
0.018 0.018 0
0.02 0.018 0
0.018 0.02 0
0.02 0.02 0
0.02 0.018 0
0.022 0.018 0
0.02 0.02 0
0.022 0.02 0
0.022 0.018 0
0.024 0.018 0
0.022 0.02 0
0.024 0.02 0
0.024 0.018 0
0.026 0.018 0
0.024 0.02 0
0.026 0.02 0
0.026 0.018 0
0.028 0.018 0
0.026 0.02 0
0.028 0.02 0
0.028 0.018 0
0.03 0.018 0
0.028 0.02 0
0.03 0.02 0
0 0.02 0
0.002 0.02 0
0 0.022 0
0.002 0.022 0
0.002 0.02 0
0.004 0.02 0
0.002 0.022 0
0.004 0.022 0
0.004 0.02 0
0.006 0.02 0
0.004 0.022 0
0.006 0.022 0
0.006 0.02 0
0.008 0.02 0
0.006 0.022 0
0.008 0.022 0
0.008 0.02 0
0.01 0.02 0
0.008 0.022 0
0.01 0.022 0
0.01 0.02 0
0.012 0.02 0
0.01 0.022 0
0.012 0.022 0
0.012 0.02 0
0.014 0.02 0
0.012 0.022 0
0.014 0.022 0
0.014 0.02 0
0.016 0.02 0
0.014 0.022 0
0.016 0.022 0
0.016 0.02 0
0.018 0.02 0
0.016 0.022 0
0.018 0.022 0
0.018 0.02 0
0.02 0.02 0
0.018 0.022 0
0.02 0.022 0
0.02 0.02 0
0.022 0.02 0
0.02 0.022 0
0.022 0.022 0
0.022 0.02 0
0.024 0.02 0
0.022 0.022 0
0.024 0.022 0
0.024 0.02 0
0.026 0.02 0
0.024 0.022 0
0.026 0.022 0
0.026 0.02 0
0.028 0.02 0
0.026 0.022 0
0.028 0.022 0
0.028 0.02 0
0.03 0.02 0
0.028 0.022 0
0.03 0.022 0
0 0.022 0
0.002 0.022 0
0 0.024 0
0.002 0.024 0
0.002 0.022 0
0.004 0.022 0
0.002 0.024 0
0.004 0.024 0
0.004 0.022 0
0.006 0.022 0
0.004 0.024 0
0.006 0.024 0
0.006 0.022 0
0.008 0.022 0
0.006 0.024 0
0.008 0.024 0
0.008 0.022 0
0.01 0.022 0
0.008 0.024 0
0.01 0.024 0
0.01 0.022 0
0.012 0.022 0
0.01 0.024 0
0.012 0.024 0
0.012 0.022 0
0.014 0.022 0
0.012 0.024 0
0.014 0.024 0
0.014 0.022 0
0.016 0.022 0
0.014 0.024 0
0.016 0.024 0
0.016 0.022 0
0.018 0.022 0
0.016 0.024 0
0.018 0.024 0
0.018 0.022 0
0.02 0.022 0
0.018 0.024 0
0.02 0.024 0
0.02 0.022 0
0.022 0.022 0
0.02 0.024 0
0.022 0.024 0
0.022 0.022 0
0.024 0.022 0
0.022 0.024 0
0.024 0.024 0
0.024 0.022 0
0.026 0.022 0
0.024 0.024 0
0.026 0.024 0
0.026 0.022 0
0.028 0.022 0
0.026 0.024 0
0.028 0.024 0
0.028 0.022 0
0.03 0.022 0
0.028 0.024 0
0.03 0.024 0
0 0.024 0
0.002 0.024 0
0 0.026 0
0.002 0.026 0
0.002 0.024 0
0.004 0.024 0
0.002 0.026 0
0.004 0.026 0
0.004 0.024 0
0.006 0.024 0
0.004 0.026 0
0.006 0.026 0
0.006 0.024 0
0.008 0.024 0
0.006 0.026 0
0.008 0.026 0
[...]
POINT_DATA 2400
SCALARS D double 1
LOOKUP_TABLE default
300 300.2 300.646 300.701 300.2 300.4 300.701 300.823 300.4 300.6 300.823 300.972 300.6 300.8 300.972 301.133 300.8 301 301.133 301.3 301 301.2 301.3 301.471 301.2 301.4 301.471 301.644 301.4 301.6 301.644 301.817 301.6 301.8 301.817 301.99 301.8 302 301.99 302.161 302 302.2 302.161 302.329 302.2 302.4 302.329 302.49 302.4 302.6 302.49 302.638 302.6 302.8 302.638 302.761 302.8 303 302.761 302.815 300.646 300.701 301.115 301.145 300.701 300.823 301.145 301.223 300.823 300.972 301.223 301.332 300.972 301.133 301.332 301.459 301.133 301.3 301.459 301.596 301.3 301.471 301.596 301.74 301.471 301.644 301.74 301.887 301.644 301.817 301.887 302.035 301.817 301.99 302.035 302.182 301.99 302.161 302.182 302.326 302.161 302.329 302.326 302.464 302.329 302.49 302.464 302.591 302.49 302.638 302.591 302.699 302.638 302.761 302.699 302.778 302.761 302.815 302.778 302.808 301.115 301.145 301.52 301.54 301.145 301.223 301.54 301.594 301.223 301.332 301.594 301.675 301.332 301.459 301.675 301.775 301.459 301.596 301.775 301.887 301.596 301.74 301.887 302.006 301.74 301.887 302.006 302.13 301.887 302.035 302.13 302.254 302.035 302.182 302.254 302.378 302.182 302.326 302.378 302.497 302.326 302.464 302.497 302.609 302.464 302.591 302.609 302.708 302.591 302.699 302.708 302.79 302.699 302.778 302.79 302.844 302.778 302.808 302.844 302.864 301.52 301.54 301.884 301.898 301.54 301.594 301.898 301.939 301.594 301.675 301.939 302.001 301.675 301.775 302.001 302.08 301.775 301.887 302.08 302.17 301.887 302.006 302.17 302.268 302.006 302.13 302.268 302.371 302.13 302.254 302.371 302.475 302.254 302.378 302.475 302.577 302.378 302.497 302.577 302.675 302.497 302.609 302.675 302.766 302.609 302.708 302.766 302.844 302.708 302.79 302.844 302.907 302.79 302.844 302.907 302.947 302.844 302.864 302.947 302.961 301.884 301.898 302.22 302.231 301.898 301.939 302.231 302.261 301.939 302.001 302.261 302.31 302.001 302.08 302.31 302.372 302.08 302.17 302.372 302.445 302.17 302.268 302.445 302.526 302.268 302.371 302.526 302.61 302.371 302.475 302.61 302.696 302.475 302.577 302.696 302.781 302.577 302.675 302.781 302.861 302.675 302.766 302.861 302.934 302.766 302.844 302.934 302.997 302.844 302.907 302.997 303.045 302.907 302.947 303.045 303.076 302.947 302.961 303.076 303.087 302.22 302.231 302.534 302.542 302.231 302.261 302.542 302.566 302.261 302.31 302.566 302.605 302.31 302.372 302.605 302.655 302.372 302.445 302.655 302.714 302.445 302.526 302.714 302.779 302.526 302.61 302.779 302.849 302.61 302.696 302.849 302.919 302.696 302.781 302.919 302.989 302.781 302.861 302.989 303.054 302.861 302.934 303.054 303.113 302.934 302.997 303.113 303.163 302.997 303.045 303.163 303.202 303.045 303.076 303.202 303.226 303.076 303.087 303.226 303.234 302.534 302.542 302.831 302.838 302.542 302.566 302.838 302.857 302.566 302.605 302.857 302.887 302.605 302.655 302.887 302.928 302.655 302.714 302.928 302.975 302.714 302.779 302.975 303.029 302.779 302.849 303.029 303.086 302.849 302.919 303.086 303.144 302.919 302.989 303.144 303.2 302.989 303.054 303.2 303.254 303.054 303.113 303.254 303.302 303.113 303.163 303.302 303.342 303.163 303.202 303.342 303.372 303.202 303.226 303.372 303.391 303.226 303.234 303.391 303.398 302.831 302.838 303.116 303.121 302.838 302.857 303.121 303.136 302.857 302.887 303.136 303.161 302.887 302.928 303.161 303.193 302.928 302.975 303.193 303.232 302.975 303.029 303.232 303.275 303.029 303.086 303.275 303.322 303.086 303.144 303.322 303.369 303.144 303.2 303.369 303.415 303.2 303.254 303.415 303.459 303.254 303.302 303.459 303.498 303.302 303.342 303.498 303.53 303.342 303.372 303.53 303.554 303.372 303.391 303.554 303.57 303.391 303.398 303.57 303.575 303.116 303.121 303.39 303.394 303.121 303.136 303.394 303.406 303.136 303.161 303.406 303.426 303.161 303.193 303.426 303.452 303.193 303.232 303.452 303.483 303.232 303.275 303.483 303.519 303.275 303.322 303.519 303.557 303.322 303.369 303.557 303.595 303.369 303.415 303.595 303.633 303.415 303.459 303.633 303.668 303.459 303.498 303.668 303.7 303.498 303.53 303.7 303.726 303.53 303.554 303.726 303.746 303.554 303.57 303.746 303.758 303.57 303.575 303.758 303.762 303.39 303.394 303.655 303.658 303.394 303.406 303.658 303.668 303.406 303.426 303.668 303.684 303.426 303.452 303.684 303.706 303.452 303.483 303.706 303.731 303.483 303.519 303.731 303.76 303.519 303.557 303.76 303.791 303.557 303.595 303.791 303.822 303.595 303.633 303.822 303.853 303.633 303.668 303.853 303.882 303.668 303.7 303.882 303.908 303.7 303.726 303.908 303.929 303.726 303.746 303.929 303.945 303.746 303.758 303.945 303.955 303.758 303.762 303.955 303.958 303.655 303.658 303.914 303.916 303.658 303.668 303.916 303.924 303.668 303.684 303.924 303.937 303.684 303.706 303.937 303.955 303.706 303.731 303.955 303.976 303.731 303.76 303.976 303.999 303.76 303.791 303.999 304.024 303.791 303.822 304.024 304.05 303.822 303.853 304.05 304.075 303.853 303.882 304.075 304.099 303.882 303.908 304.099 304.12 303.908 303.929 304.12 304.137 303.929 303.945 304.137 304.15 303.945 303.955 304.15 304.158 303.955 303.958 304.158 304.161 303.914 303.916 304.167 304.169 303.916 303.924 304.169 304.176 303.924 303.937 304.176 304.186 303.937 303.955 304.186 304.2 303.955 303.976 304.2 304.217 303.976 303.999 304.217 304.237 303.999 304.024 304.237 304.257 304.024 304.05 304.257 304.278 304.05 304.075 304.278 304.299 304.075 304.099 304.299 304.318 304.099 304.12 304.318 304.335 304.12 304.137 304.335 304.35 304.137 304.15 304.35 304.36 304.15 304.158 304.36 304.367 304.158 304.161 304.367 304.369 304.167 304.169 304.416 304.417 304.169 304.176 304.417 304.423 304.176 304.186 304.423 304.431 304.186 304.2 304.431 304.443 304.2 304.217 304.443 304.457 304.217 304.237 304.457 304.473 304.237 304.257 304.473 304.49 304.257 304.278 304.49 304.507 304.278 304.299 304.507 304.524 304.299 304.318 304.524 304.54 304.318 304.335 304.54 304.554 304.335 304.35 304.554 304.566 304.35 304.36 304.566 304.574 304.36 304.367 304.574 304.58 304.367 304.369 304.58 304.582 304.416 304.417 304.661 304.662 304.417 304.423 304.662 304.667 304.423 304.431 304.667 304.674 304.431 304.443 304.674 304.683 304.443 304.457 304.683 304.695 304.457 304.473 304.695 304.708 304.473 304.49 304.708 304.722 304.49 304.507 304.722 304.736 304.507 304.524 304.736 304.75 304.524 304.54 304.75 304.764 304.54 304.554 304.764 304.775 304.554 304.566 304.775 304.785 304.566 304.574 304.785 304.792 304.574 304.58 304.792 304.796 304.58 304.582 304.796 304.798 304.661 304.662 304.903 304.904 304.662 304.667 304.904 304.908 304.667 304.674 304.908 304.914 304.674 304.683 304.914 304.922 304.683 304.695 304.922 304.931 304.695 304.708 304.931 304.942 304.708 304.722 304.942 304.954 304.722 304.736 304.954 304.966 304.736 304.75 304.966 304.978 304.75 304.764 304.978 304.988 304.764 304.775 304.988 304.998 304.775 304.785 304.998 305.006 304.785 304.792 305.006 305.012 304.792 304.796 305.012 305.016 304.796 304.798 305.016 305.017 304.903 304.904 305.142 305.143 304.904 304.908 305.143 305.146 304.908 304.914 305.146 305.151 304.914 304.922 305.151 305.158 304.922 304.931 305.158 305.166 304.931 304.942 305.166 305.176 304.942 304.954 305.176 305.185 304.954 304.966 305.185 305.196 304.966 304.978 305.196 305.206 304.978 304.988 305.206 305.215 304.988 304.998 305.215 305.223 304.998 305.006 305.223 305.23 305.006 305.012 305.23 305.235 305.012 305.016 305.235 305.238 305.016 305.017 305.238 305.239 305.142 305.143 305.379 305.38 305.143 305.146 305.38 305.383 305.146 305.151 305.383 305.387 305.151 305.158 305.387 305.393 305.158 305.166 305.393 305.4 305.166 305.176 305.4 305.408 305.176 305.185 305.408 305.417 305.185 305.196 305.417 305.426 305.196 305.206 305.426 305.434 305.206 305.215 305.434 305.442 305.215 305.223 305.442 305.449 305.223 305.23 305.449 305.455 305.23 305.235 305.455 305.459 305.235 305.238 305.459 305.462 305.238 305.239 305.462 305.463 305.379 305.38 305.615 305.616 305.38 305.383 305.616 305.618 305.383 305.387 305.618 305.622 305.387 305.393 305.622 305.627 305.393 305.4 305.627 305.633 305.4 305.408 305.633 305.64 305.408 305.417 305.64 305.648 305.417 305.426 305.648 305.656 305.426 305.434 305.656 305.663 305.434 305.442 305.663 305.67 305.442 305.449 305.67 305.677 305.449 305.455 305.677 305.682 305.455 305.459 305.682 305.686 305.459 305.462 305.686 305.688 305.462 305.463 305.688 305.689 305.615 305.616 305.849 305.85 305.616 305.618 305.85 305.852 305.618 305.622 305.852 305.855 305.622 305.627 305.855 305.86 305.627 305.633 305.86 305.866 305.633 305.64 305.866 305.872 305.64 305.648 305.872 305.879 305.648 305.656 305.879 305.886 305.656 305.663 305.886 305.893 305.663 305.67 305.893 305.899 305.67 305.677 305.899 305.905 305.677 305.682 305.905 305.91 305.682 305.686 305.91 305.913 305.686 305.688 305.913 305.916 305.688 305.689 305.916 305.916 305.849 305.85 306.081 306.082 305.85 305.852 306.082 306.084 305.852 305.855 306.084 306.087 305.855 305.86 306.087 306.092 305.86 305.866 306.092 306.097 305.866 305.872 306.097 306.103 305.872 305.879 306.103 306.11 305.879 305.886 306.11 306.116 305.886 305.893 306.116 306.123 305.893 305.899 306.123 306.129 305.899 305.905 306.129 306.135 305.905 305.91 306.135 306.139 305.91 305.913 306.139 306.142 305.913 305.916 306.142 306.145 305.916 305.916 306.145 306.145 306.081 306.082 306.312 306.313 306.082 306.084 306.313 306.315 306.084 306.087 306.315 306.318 306.087 306.092 306.318 306.323 306.092 306.097 306.323 306.328 306.097 306.103 306.328 306.334 306.103 306.11 306.334 306.34 306.11 306.116 306.34 306.347 306.116 306.123 306.347 306.354 306.123 306.129 306.354 306.36 306.129 306.135 306.36 306.365 306.135 306.139 306.365 306.369 306.139 306.142 306.369 306.373 306.142 306.145 306.373 306.375 306.145 306.145 306.375 306.376 306.312 306.313 306.542 306.543 306.313 306.315 306.543 306.545 306.315 306.318 306.545 306.548 306.318 306.323 306.548 306.553 306.323 306.328 306.553 306.558 306.328 306.334 306.558 306.564 306.334 306.34 306.564 306.571 306.34 306.347 306.571 306.578 306.347 306.354 306.578 306.585 306.354 306.36 306.585 306.591 306.36 306.365 306.591 306.596 306.365 306.369 306.596 306.601 306.369 306.373 306.601 306.604 306.373 306.375 306.604 306.607 306.375 306.376 306.607 306.607 306.542 306.543 306.77 306.771 306.543 306.545 306.771 306.773 306.545 306.548 306.773 306.777 306.548 306.553 306.777 306.782 306.553 306.558 306.782 306.787 306.558 306.564 306.787 306.794 306.564 306.571 306.794 306.801 306.571 306.578 306.801 306.809 306.578 306.585 306.809 306.816 306.585 306.591 306.816 306.823 306.591 306.596 306.823 306.829 306.596 306.601 306.829 306.834 306.601 306.604 306.834 306.837 306.604 306.607 306.837 306.84 306.607 306.607 306.84 306.841 306.77 306.771 306.997 306.998 306.771 306.773 306.998 307 306.773 306.777 307 307.004 306.777 306.782 307.004 307.009 306.782 306.787 307.009 307.016 306.787 306.794 307.016 307.023 306.794 306.801 307.023 307.031 306.801 306.809 307.031 307.04 306.809 306.816 307.04 307.048 306.816 306.823 307.048 307.055 306.823 306.829 307.055 307.062 306.829 306.834 307.062 307.068 306.834 306.837 307.068 307.072 306.837 306.84 307.072 307.074 306.84 306.841 307.074 307.075 306.997 306.998 307.222 307.223 306.998 307 307.223 307.226 307 307.004 307.226 307.23 307.004 307.009 307.23 307.236 307.009 307.016 307.236 307.244 307.016 307.023 307.244 307.252 307.023 307.031 307.252 307.261 307.031 307.04 307.261 307.271 307.04 307.048 307.271 307.28 307.048 307.055 307.28 307.289 307.055 307.062 307.289 307.297 307.062 307.068 307.297 307.303 307.068 307.072 307.303 307.308 307.072 307.074 307.308 307.311 307.074 307.075 307.311 307.312 307.222 307.223 307.445 307.446 307.223 307.226 307.446 307.449 307.226 307.23 307.449 307.455 307.23 307.236 307.455 307.462 307.236 307.244 307.462 307.47 307.244 307.252 307.47 307.48 307.252 307.261 307.48 307.491 307.261 307.271 307.491 307.502 307.271 307.28 307.502 307.513 307.28 307.289 307.513 307.523 307.289 307.297 307.523 307.532 307.297 307.303 307.532 307.54 307.303 307.308 307.54 307.546 307.308 307.311 307.546 307.549 307.311 307.312 307.549 307.551 307.445 307.446 307.666 307.667 307.446 307.449 307.667 307.671 307.449 307.455 307.671 307.677 307.455 307.462 307.677 307.686 307.462 307.47 307.686 307.696 307.47 307.48 307.696 307.708 307.48 307.491 307.708 307.72 307.491 307.502 307.72 307.733 307.502 307.513 307.733 307.746 307.513 307.523 307.746 307.759 307.523 307.532 307.759 307.77 307.532 307.54 307.77 307.779 307.54 307.546 307.779 307.786 307.546 307.549 307.786 307.79 307.549 307.551 307.79 307.792 307.666 307.667 307.884 307.886 307.667 307.671 307.886 307.89 307.671 307.677 307.89 307.898 307.677 307.686 307.898 307.908 307.686 307.696 307.908 307.92 307.696 307.708 307.92 307.934 307.708 307.72 307.934 307.949 307.72 307.733 307.949 307.965 307.733 307.746 307.965 307.981 307.746 307.759 307.981 307.996 307.759 307.77 307.996 308.009 307.77 307.779 308.009 308.02 307.779 307.786 308.02 308.029 307.786 307.79 308.029 308.034 307.79 307.792 308.034 308.036 307.884 307.886 308.099 308.101 307.886 307.89 308.101 308.107 307.89 307.898 308.107 308.115 307.898 307.908 308.115 308.127 307.908 307.92 308.127 308.142 307.92 307.934 308.142 308.159 307.934 307.949 308.159 308.177 307.949 307.965 308.177 308.197 307.965 307.981 308.197 308.216 307.981 307.996 308.216 308.234 307.996 308.009 308.234 308.25 308.009 308.02 308.25 308.264 308.02 308.029 308.264 308.275 308.029 308.034 308.275 308.281 308.034 308.036 308.281 308.283 308.099 308.101 308.311 308.313 308.101 308.107 308.313 308.319 308.107 308.115 308.319 308.33 308.115 308.127 308.33 308.344 308.127 308.142 308.344 308.362 308.142 308.159 308.362 308.383 308.159 308.177 308.383 308.405 308.177 308.197 308.405 308.428 308.197 308.216 308.428 308.452 308.216 308.234 308.452 308.474 308.234 308.25 308.474 308.494 308.25 308.264 308.494 308.512 308.264 308.275 308.512 308.525 308.275 308.281 308.525 308.533 308.281 308.283 308.533 308.536 308.311 308.313 308.518 308.52 308.313 308.319 308.52 308.528 308.319 308.33 308.528 308.541 308.33 308.344 308.541 308.558 308.344 308.362 308.558 308.579 308.362 308.383 308.579 308.604 308.383 308.405 308.604 308.631 308.405 308.428 308.631 308.66 308.428 308.452 308.66 308.688 308.452 308.474 308.688 308.716 308.474 308.494 308.716 308.742 308.494 308.512 308.742 308.763 308.512 308.525 308.763 308.779 308.525 308.533 308.779 308.79 308.533 308.536 308.79 308.793 308.518 308.52 308.72 308.723 308.52 308.528 308.723 308.732 308.528 308.541 308.732 308.747 308.541 308.558 308.747 308.768 308.558 308.579 308.768 308.793 308.579 308.604 308.793 308.823 308.604 308.631 308.823 308.856 308.631 308.66 308.856 308.891 308.66 308.688 308.891 308.926 308.688 308.716 308.926 308.961 308.716 308.742 308.961 308.993 308.742 308.763 308.993 309.02 308.763 308.779 309.02 309.041 308.779 308.79 309.041 309.054 308.79 308.793 309.054 309.058 308.72 308.723 308.915 308.919 308.723 308.732 308.919 308.93 308.732 308.747 308.93 308.948 308.747 308.768 308.948 308.973 308.768 308.793 308.973 309.003 308.793 308.823 309.003 309.039 308.823 308.856 309.039 309.079 308.856 308.891 309.079 309.122 308.891 308.926 309.122 309.165 308.926 308.961 309.165 309.208 308.961 308.993 309.208 309.248 308.993 309.02 309.248 309.283 309.02 309.041 309.283 309.309 309.041 309.054 309.309 309.326 309.054 309.058 309.326 309.332 308.915 308.919 309.103 309.108 308.919 308.93 309.108 309.121 308.93 308.948 309.121 309.142 308.948 308.973 309.142 309.171 308.973 309.003 309.171 309.208 309.003 309.039 309.208 309.251 309.039 309.079 309.251 309.299 309.079 309.122 309.299 309.351 309.122 309.165 309.351 309.405 309.165 309.208 309.405 309.459 309.208 309.248 309.459 309.509 309.248 309.283 309.509 309.553 309.283 309.309 309.553 309.588 309.309 309.326 309.588 309.61 309.326 309.332 309.61 309.618 309.103 309.108 309.283 309.288 309.108 309.121 309.288 309.303 309.121 309.142 309.303 309.328 309.142 309.171 309.328 309.363 309.171 309.208 309.363 309.406 309.208 309.251 309.406 309.457 309.251 309.299 309.457 309.516 309.299 309.351 309.516 309.579 309.351 309.405 309.579 309.645 309.405 309.459 309.645 309.712 309.459 309.509 309.712 309.776 309.509 309.553 309.776 309.833 309.553 309.588 309.833 309.879 309.588 309.61 309.879 309.909 309.61 309.618 309.909 309.92 309.283 309.288 309.452 309.458 309.288 309.303 309.458 309.475 309.303 309.328 309.475 309.505 309.328 309.363 309.505 309.545 309.363 309.406 309.545 309.596 309.406 309.457 309.596 309.657 309.457 309.516 309.657 309.727 309.516 309.579 309.727 309.803 309.579 309.645 309.803 309.884 309.645 309.712 309.884 309.968 309.712 309.776 309.968 310.05 309.776 309.833 310.05 310.125 309.833 309.879 310.125 310.187 309.879 309.909 310.187 310.228 309.909 309.92 310.228 310.243 309.452 309.458 309.609 309.616 309.458 309.475 309.616 309.636 309.475 309.505 309.636 309.67 309.505 309.545 309.67 309.717 309.545 309.596 309.717 309.777 309.596 309.657 309.777 309.848 309.657 309.727 309.848 309.931 309.727 309.803 309.931 310.022 309.803 309.884 310.022 310.121 309.884 309.968 310.121 310.225 309.968 310.05 310.225 310.33 310.05 310.125 310.33 310.429 310.125 310.187 310.429 310.515 310.187 310.228 310.515 310.575 310.228 310.243 310.575 310.596 309.609 309.616 309.752 309.76 309.616 309.636 309.76 309.784 309.636 309.67 309.784 309.823 309.67 309.717 309.823 309.877 309.717 309.777 309.877 309.946 309.777 309.848 309.946 310.029 309.848 309.931 310.029 310.125 309.931 310.022 310.125 310.234 310.022 310.121 310.234 310.354 310.121 310.225 310.354 310.482 310.225 310.33 310.482 310.615 310.33 310.429 310.615 310.747 310.429 310.515 310.747 310.868 310.515 310.575 310.868 310.96 310.575 310.596 310.96 310.996 309.752 309.76 309.878 309.889 309.76 309.784 309.889 309.916 309.784 309.823 309.916 309.96 309.823 309.877 309.96 310.021 309.877 309.946 310.021 310.1 309.946 310.029 310.1 310.195 310.029 310.125 310.195 310.307 310.125 310.234 310.307 310.434 310.234 310.354 310.434 310.577 310.354 310.482 310.577 310.733 310.482 310.615 310.733 310.9 310.615 310.747 310.9 311.074 310.747 310.868 311.074 311.247 310.868 310.96 311.247 311.4 310.96 310.996 311.4 311.479 309.878 309.889 310 310.01 309.889 309.916 310.01 310.04 309.916 309.96 310.04 310.089 309.96 310.021 310.089 310.159 310.021 310.1 310.159 310.248 310.1 310.195 310.248 310.357 310.195 310.307 310.357 310.486 310.307 310.434 310.486 310.635 310.434 310.577 310.635 310.804 310.577 310.733 310.804 310.992 310.733 310.9 310.992 311.2 310.9 311.074 311.2 311.428 311.074 311.247 311.428 311.676 311.247 311.4 311.676 311.944 311.4 311.479 311.944 312.232 
