# vtk DataFile Version 3.0
#This file was generated by the deal.II library on 2018/10/22 at 19:25:36
ASCII
DATASET UNSTRUCTURED_GRID

POINTS 200 double
0 0 0
0.001 0 0
0.001 0 0
0.002 0 0
0.002 0 0
0.003 0 0
0.003 0 0
0.004 0 0
0.004 0 0
0.005 0 0
0.005 0 0
0.006 0 0
0.006 0 0
0.007 0 0
0.007 0 0
0.008 0 0
0.008 0 0
0.009 0 0
0.009 0 0
0.01 0 0
0.01 0 0
0.011 0 0
0.011 0 0
0.012 0 0
0.012 0 0
0.013 0 0
0.013 0 0
0.014 0 0
0.014 0 0
0.015 0 0
0.015 0 0
0.016 0 0
0.016 0 0
0.017 0 0
0.017 0 0
0.018 0 0
0.018 0 0
0.019 0 0
0.019 0 0
0.02 0 0
0.02 0 0
0.021 0 0
0.021 0 0
0.022 0 0
0.022 0 0
0.023 0 0
0.023 0 0
0.024 0 0
0.024 0 0
0.025 0 0
0.025 0 0
0.026 0 0
0.026 0 0
0.027 0 0
0.027 0 0
0.028 0 0
0.028 0 0
0.029 0 0
0.029 0 0
0.03 0 0
0.03 0 0
0.031 0 0
0.031 0 0
0.032 0 0
0.032 0 0
0.033 0 0
0.033 0 0
0.034 0 0
0.034 0 0
0.035 0 0
0.035 0 0
0.036 0 0
0.036 0 0
0.037 0 0
0.037 0 0
0.038 0 0
0.038 0 0
0.039 0 0
0.039 0 0
0.04 0 0
0.04 0 0
0.041 0 0
0.041 0 0
0.042 0 0
0.042 0 0
0.043 0 0
0.043 0 0
0.044 0 0
0.044 0 0
0.045 0 0
0.045 0 0
0.046 0 0
0.046 0 0
0.047 0 0
0.047 0 0
0.048 0 0
0.048 0 0
0.049 0 0
0.049 0 0
0.05 0 0
0.05 0 0
0.051 0 0
0.051 0 0
0.052 0 0
0.052 0 0
0.053 0 0
0.053 0 0
0.054 0 0
0.054 0 0
0.055 0 0
0.055 0 0
0.056 0 0
0.056 0 0
0.057 0 0
0.057 0 0
0.058 0 0
0.058 0 0
0.059 0 0
0.059 0 0
0.06 0 0
0.06 0 0
0.061 0 0
0.061 0 0
0.062 0 0
0.062 0 0
0.063 0 0
0.063 0 0
0.064 0 0
0.064 0 0
0.065 0 0
0.065 0 0
0.066 0 0
0.066 0 0
0.067 0 0
0.067 0 0
0.068 0 0
0.068 0 0
0.069 0 0
0.069 0 0
0.07 0 0
0.07 0 0
0.071 0 0
0.071 0 0
0.072 0 0
0.072 0 0
0.073 0 0
0.073 0 0
0.074 0 0
0.074 0 0
0.075 0 0
0.075 0 0
0.076 0 0
0.076 0 0
0.077 0 0
0.077 0 0
0.078 0 0
0.078 0 0
0.079 0 0
0.079 0 0
0.08 0 0
0.08 0 0
0.081 0 0
0.081 0 0
0.082 0 0
0.082 0 0
0.083 0 0
0.083 0 0
0.084 0 0
0.084 0 0
0.085 0 0
0.085 0 0
0.086 0 0
0.086 0 0
0.087 0 0
0.087 0 0
0.088 0 0
0.088 0 0
0.089 0 0
0.089 0 0
0.09 0 0
0.09 0 0
0.091 0 0
0.091 0 0
0.092 0 0
0.092 0 0
0.093 0 0
0.093 0 0
0.094 0 0
0.094 0 0
0.095 0 0
0.095 0 0
0.096 0 0
0.096 0 0
0.097 0 0
0.097 0 0
0.098 0 0
0.098 0 0
0.099 0 0
0.099 0 0
0.1 0 0

CELLS 100 300
2	0	1
2	2	3
2	4	5
2	6	7
2	8	9
2	10	11
2	12	13
2	14	15
2	16	17
2	18	19
2	20	21
2	22	23
2	24	25
2	26	27
2	28	29
2	30	31
2	32	33
2	34	35
2	36	37
2	38	39
2	40	41
2	42	43
2	44	45
2	46	47
2	48	49
2	50	51
2	52	53
2	54	55
2	56	57
2	58	59
2	60	61
2	62	63
2	64	65
2	66	67
2	68	69
2	70	71
2	72	73
2	74	75
2	76	77
2	78	79
2	80	81
2	82	83
2	84	85
2	86	87
2	88	89
2	90	91
2	92	93
2	94	95
2	96	97
2	98	99
2	100	101
2	102	103
2	104	105
2	106	107
2	108	109
2	110	111
2	112	113
2	114	115
2	116	117
2	118	119
2	120	121
2	122	123
2	124	125
2	126	127
2	128	129
2	130	131
2	132	133
2	134	135
2	136	137
2	138	139
2	140	141
2	142	143
2	144	145
2	146	147
2	148	149
2	150	151
2	152	153
2	154	155
2	156	157
2	158	159
2	160	161
2	162	163
2	164	165
2	166	167
2	168	169
2	170	171
2	172	173
2	174	175
2	176	177
2	178	179
2	180	181
2	182	183
2	184	185
2	186	187
2	188	189
2	190	191
2	192	193
2	194	195
2	196	197
2	198	199

CELL_TYPES 100
 3 3 3 3 3 3 3 3 3 3 3 3 3 3 3 3 3 3 3 3 3 3 3 3 3 3 3 3 3 3 3 3 3 3 3 3 3 3 3 3 3 3 3 3 3 3 3 3 3 3 3 3 3 3 3 3 3 3 3 3 3 3 3 3 3 3 3 3 3 3 3 3 3 3 3 3 3 3 3 3 3 3 3 3 3 3 3 3 3 3 3 3 3 3 3 3 3 3 3 3
POINT_DATA 200
VECTORS u double
0 0 0
1.08332e-05 0 0
1.08332e-05 0 0
2.16653e-05 0 0
2.16653e-05 0 0
3.24956e-05 0 0
3.24956e-05 0 0
4.33229e-05 0 0
4.33229e-05 0 0
5.41464e-05 0 0
5.41464e-05 0 0
6.49651e-05 0 0
6.49651e-05 0 0
7.57782e-05 0 0
7.57782e-05 0 0
8.65847e-05 0 0
8.65847e-05 0 0
9.7384e-05 0 0
9.7384e-05 0 0
0.000108175 0 0
0.000108175 0 0
0.000118957 0 0
0.000118957 0 0
0.000129729 0 0
0.000129729 0 0
0.000140491 0 0
0.000140491 0 0
0.000151241 0 0
0.000151241 0 0
0.00016198 0 0
0.00016198 0 0
0.000172705 0 0
0.000172705 0 0
0.000183417 0 0
0.000183417 0 0
0.000194115 0 0
0.000194115 0 0
0.000204799 0 0
0.000204799 0 0
0.000215467 0 0
0.000215467 0 0
0.000226119 0 0
0.000226119 0 0
0.000236754 0 0
0.000236754 0 0
0.000247372 0 0
0.000247372 0 0
0.000257972 0 0
0.000257972 0 0
0.000268555 0 0
0.000268555 0 0
0.000279118 0 0
0.000279118 0 0
0.000289662 0 0
0.000289662 0 0
0.000300187 0 0
0.000300187 0 0
0.000310691 0 0
0.000310691 0 0
0.000321175 0 0
0.000321175 0 0
0.000331638 0 0
0.000331638 0 0
0.000342079 0 0
0.000342079 0 0
0.000352499 0 0
0.000352499 0 0
0.000362896 0 0
0.000362896 0 0
0.000373271 0 0
0.000373271 0 0
0.000383624 0 0
0.000383624 0 0
0.000393953 0 0
0.000393953 0 0
0.000404259 0 0
0.000404259 0 0
0.000414541 0 0
0.000414541 0 0
0.0004248 0 0
0.0004248 0 0
0.000435035 0 0
0.000435035 0 0
0.000445245 0 0
0.000445245 0 0
0.000455431 0 0
0.000455431 0 0
0.000465593 0 0
0.000465593 0 0
0.00047573 0 0
0.00047573 0 0
0.000485842 0 0
0.000485842 0 0
0.000495929 0 0
0.000495929 0 0
0.000505992 0 0
0.000505992 0 0
0.000516029 0 0
0.000516029 0 0
0.000526042 0 0
0.000526042 0 0
0.000536029 0 0
0.000536029 0 0
0.000545992 0 0
0.000545992 0 0
0.000555929 0 0
0.000555929 0 0
0.000565842 0 0
0.000565842 0 0
0.00057573 0 0
0.00057573 0 0
0.000585593 0 0
0.000585593 0 0
0.000595431 0 0
0.000595431 0 0
0.000605245 0 0
0.000605245 0 0
0.000615035 0 0
0.000615035 0 0
0.0006248 0 0
0.0006248 0 0
0.000634541 0 0
0.000634541 0 0
0.000644259 0 0
0.000644259 0 0
0.000653953 0 0
0.000653953 0 0
0.000663624 0 0
0.000663624 0 0
0.000673271 0 0
0.000673271 0 0
0.000682896 0 0
0.000682896 0 0
0.000692499 0 0
0.000692499 0 0
0.000702079 0 0
0.000702079 0 0
0.000711638 0 0
0.000711638 0 0
0.000721175 0 0
0.000721175 0 0
0.000730691 0 0
0.000730691 0 0
0.000740187 0 0
0.000740187 0 0
0.000749662 0 0
0.000749662 0 0
0.000759118 0 0
0.000759118 0 0
0.000768555 0 0
0.000768555 0 0
0.000777972 0 0
0.000777972 0 0
0.000787372 0 0
0.000787372 0 0
0.000796754 0 0
0.000796754 0 0
0.000806119 0 0
0.000806119 0 0
0.000815467 0 0
0.000815467 0 0
0.000824799 0 0
0.000824799 0 0
0.000834115 0 0
0.000834115 0 0
0.000843417 0 0
0.000843417 0 0
0.000852705 0 0
0.000852705 0 0
0.00086198 0 0
0.00086198 0 0
0.000871241 0 0
0.000871241 0 0
0.000880491 0 0
0.000880491 0 0
0.000889729 0 0
0.000889729 0 0
0.000898957 0 0
0.000898957 0 0
0.000908175 0 0
0.000908175 0 0
0.000917384 0 0
0.000917384 0 0
0.000926585 0 0
0.000926585 0 0
0.000935778 0 0
0.000935778 0 0
0.000944965 0 0
0.000944965 0 0
0.000954146 0 0
0.000954146 0 0
0.000963323 0 0
0.000963323 0 0
0.000972496 0 0
0.000972496 0 0
0.000981665 0 0
0.000981665 0 0
0.000990833 0 0
0.000990833 0 0
0.001 0 0
