# vtk DataFile Version 3.0
#This file was generated by the deal.II library on 2018/10/22 at 19:25:36
ASCII
DATASET UNSTRUCTURED_GRID

POINTS 200 double
0 0 0
0.001 0 0
0.001 0 0
0.002 0 0
0.002 0 0
0.003 0 0
0.003 0 0
0.004 0 0
0.004 0 0
0.005 0 0
0.005 0 0
0.006 0 0
0.006 0 0
0.007 0 0
0.007 0 0
0.008 0 0
0.008 0 0
0.009 0 0
0.009 0 0
0.01 0 0
0.01 0 0
0.011 0 0
0.011 0 0
0.012 0 0
0.012 0 0
0.013 0 0
0.013 0 0
0.014 0 0
0.014 0 0
0.015 0 0
0.015 0 0
0.016 0 0
0.016 0 0
0.017 0 0
0.017 0 0
0.018 0 0
0.018 0 0
0.019 0 0
0.019 0 0
0.02 0 0
0.02 0 0
0.021 0 0
0.021 0 0
0.022 0 0
0.022 0 0
0.023 0 0
0.023 0 0
0.024 0 0
0.024 0 0
0.025 0 0
0.025 0 0
0.026 0 0
0.026 0 0
0.027 0 0
0.027 0 0
0.028 0 0
0.028 0 0
0.029 0 0
0.029 0 0
0.03 0 0
0.03 0 0
0.031 0 0
0.031 0 0
0.032 0 0
0.032 0 0
0.033 0 0
0.033 0 0
0.034 0 0
0.034 0 0
0.035 0 0
0.035 0 0
0.036 0 0
0.036 0 0
0.037 0 0
0.037 0 0
0.038 0 0
0.038 0 0
0.039 0 0
0.039 0 0
0.04 0 0
0.04 0 0
0.041 0 0
0.041 0 0
0.042 0 0
0.042 0 0
0.043 0 0
0.043 0 0
0.044 0 0
0.044 0 0
0.045 0 0
0.045 0 0
0.046 0 0
0.046 0 0
0.047 0 0
0.047 0 0
0.048 0 0
0.048 0 0
0.049 0 0
0.049 0 0
0.05 0 0
0.05 0 0
0.051 0 0
0.051 0 0
0.052 0 0
0.052 0 0
0.053 0 0
0.053 0 0
0.054 0 0
0.054 0 0
0.055 0 0
0.055 0 0
0.056 0 0
0.056 0 0
0.057 0 0
0.057 0 0
0.058 0 0
0.058 0 0
0.059 0 0
0.059 0 0
0.06 0 0
0.06 0 0
0.061 0 0
0.061 0 0
0.062 0 0
0.062 0 0
0.063 0 0
0.063 0 0
0.064 0 0
0.064 0 0
0.065 0 0
0.065 0 0
0.066 0 0
0.066 0 0
0.067 0 0
0.067 0 0
0.068 0 0
0.068 0 0
0.069 0 0
0.069 0 0
0.07 0 0
0.07 0 0
0.071 0 0
0.071 0 0
0.072 0 0
0.072 0 0
0.073 0 0
0.073 0 0
0.074 0 0
0.074 0 0
0.075 0 0
0.075 0 0
0.076 0 0
0.076 0 0
0.077 0 0
0.077 0 0
0.078 0 0
0.078 0 0
0.079 0 0
0.079 0 0
0.08 0 0
0.08 0 0
0.081 0 0
0.081 0 0
0.082 0 0
0.082 0 0
0.083 0 0
0.083 0 0
0.084 0 0
0.084 0 0
0.085 0 0
0.085 0 0
0.086 0 0
0.086 0 0
0.087 0 0
0.087 0 0
0.088 0 0
0.088 0 0
0.089 0 0
0.089 0 0
0.09 0 0
0.09 0 0
0.091 0 0
0.091 0 0
0.092 0 0
0.092 0 0
0.093 0 0
0.093 0 0
0.094 0 0
0.094 0 0
0.095 0 0
0.095 0 0
0.096 0 0
0.096 0 0
0.097 0 0
0.097 0 0
0.098 0 0
0.098 0 0
0.099 0 0
0.099 0 0
0.1 0 0

CELLS 100 300
2	0	1
2	2	3
2	4	5
2	6	7
2	8	9
2	10	11
2	12	13
2	14	15
2	16	17
2	18	19
2	20	21
2	22	23
2	24	25
2	26	27
2	28	29
2	30	31
2	32	33
2	34	35
2	36	37
2	38	39
2	40	41
2	42	43
2	44	45
2	46	47
2	48	49
2	50	51
2	52	53
2	54	55
2	56	57
2	58	59
2	60	61
2	62	63
2	64	65
2	66	67
2	68	69
2	70	71
2	72	73
2	74	75
2	76	77
2	78	79
2	80	81
2	82	83
2	84	85
2	86	87
2	88	89
2	90	91
2	92	93
2	94	95
2	96	97
2	98	99
2	100	101
2	102	103
2	104	105
2	106	107
2	108	109
2	110	111
2	112	113
2	114	115
2	116	117
2	118	119
2	120	121
2	122	123
2	124	125
2	126	127
2	128	129
2	130	131
2	132	133
2	134	135
2	136	137
2	138	139
2	140	141
2	142	143
2	144	145
2	146	147
2	148	149
2	150	151
2	152	153
2	154	155
2	156	157
2	158	159
2	160	161
2	162	163
2	164	165
2	166	167
2	168	169
2	170	171
2	172	173
2	174	175
2	176	177
2	178	179
2	180	181
2	182	183
2	184	185
2	186	187
2	188	189
2	190	191
2	192	193
2	194	195
2	196	197
2	198	199

CELL_TYPES 100
 3 3 3 3 3 3 3 3 3 3 3 3 3 3 3 3 3 3 3 3 3 3 3 3 3 3 3 3 3 3 3 3 3 3 3 3 3 3 3 3 3 3 3 3 3 3 3 3 3 3 3 3 3 3 3 3 3 3 3 3 3 3 3 3 3 3 3 3 3 3 3 3 3 3 3 3 3 3 3 3 3 3 3 3 3 3 3 3 3 3 3 3 3 3 3 3 3 3 3 3
POINT_DATA 200
VECTORS u double
0 0 0
0.000101666 0 0
0.000101666 0 0
0.000203332 0 0
0.000203332 0 0
0.000304996 0 0
0.000304996 0 0
0.000406656 0 0
0.000406656 0 0
0.000508313 0 0
0.000508313 0 0
0.000609965 0 0
0.000609965 0 0
0.000711611 0 0
0.000711611 0 0
0.000813251 0 0
0.000813251 0 0
0.000914884 0 0
0.000914884 0 0
0.00101651 0 0
0.00101651 0 0
0.00111812 0 0
0.00111812 0 0
0.00121973 0 0
0.00121973 0 0
0.00132132 0 0
0.00132132 0 0
0.00142291 0 0
0.00142291 0 0
0.00152448 0 0
0.00152448 0 0
0.00162604 0 0
0.00162604 0 0
0.00172758 0 0
0.00172758 0 0
0.00182912 0 0
0.00182912 0 0
0.00193063 0 0
0.00193063 0 0
0.00203213 0 0
0.00203213 0 0
0.00213362 0 0
0.00213362 0 0
0.00223509 0 0
0.00223509 0 0
0.00233654 0 0
0.00233654 0 0
0.00243797 0 0
0.00243797 0 0
0.00253939 0 0
0.00253939 0 0
0.00264078 0 0
0.00264078 0 0
0.00274216 0 0
0.00274216 0 0
0.00284352 0 0
0.00284352 0 0
0.00294486 0 0
0.00294486 0 0
0.00304617 0 0
0.00304617 0 0
0.00314747 0 0
0.00314747 0 0
0.00324875 0 0
0.00324875 0 0
0.00335 0 0
0.00335 0 0
0.00345123 0 0
0.00345123 0 0
0.00355244 0 0
0.00355244 0 0
0.00365362 0 0
0.00365362 0 0
0.00375479 0 0
0.00375479 0 0
0.00385593 0 0
0.00385593 0 0
0.00395704 0 0
0.00395704 0 0
0.00405813 0 0
0.00405813 0 0
0.0041592 0 0
0.0041592 0 0
0.00426025 0 0
0.00426025 0 0
0.00436126 0 0
0.00436126 0 0
0.00446226 0 0
0.00446226 0 0
0.00456323 0 0
0.00456323 0 0
0.00466418 0 0
0.00466418 0 0
0.0047651 0 0
0.0047651 0 0
0.00486599 0 0
0.00486599 0 0
0.00496686 0 0
0.00496686 0 0
0.00506771 0 0
0.00506771 0 0
0.00516853 0 0
0.00516853 0 0
0.00526932 0 0
0.00526932 0 0
0.0053701 0 0
0.0053701 0 0
0.00547084 0 0
0.00547084 0 0
0.00557156 0 0
0.00557156 0 0
0.00567226 0 0
0.00567226 0 0
0.00577293 0 0
0.00577293 0 0
0.00587358 0 0
0.00587358 0 0
0.0059742 0 0
0.0059742 0 0
0.0060748 0 0
0.0060748 0 0
0.00617537 0 0
0.00617537 0 0
0.00627593 0 0
0.00627593 0 0
0.00637645 0 0
0.00637645 0 0
0.00647696 0 0
0.00647696 0 0
0.00657744 0 0
0.00657744 0 0
0.0066779 0 0
0.0066779 0 0
0.00677833 0 0
0.00677833 0 0
0.00687875 0 0
0.00687875 0 0
0.00697914 0 0
0.00697914 0 0
0.00707951 0 0
0.00707951 0 0
0.00717986 0 0
0.00717986 0 0
0.00728019 0 0
0.00728019 0 0
0.0073805 0 0
0.0073805 0 0
0.00748078 0 0
0.00748078 0 0
0.00758105 0 0
0.00758105 0 0
0.00768131 0 0
0.00768131 0 0
0.00778154 0 0
0.00778154 0 0
0.00788175 0 0
0.00788175 0 0
0.00798195 0 0
0.00798195 0 0
0.00808213 0 0
0.00808213 0 0
0.0081823 0 0
0.0081823 0 0
0.00828245 0 0
0.00828245 0 0
0.00838258 0 0
0.00838258 0 0
0.0084827 0 0
0.0084827 0 0
0.00858281 0 0
0.00858281 0 0
0.00868291 0 0
0.00868291 0 0
0.00878299 0 0
0.00878299 0 0
0.00888306 0 0
0.00888306 0 0
0.00898312 0 0
0.00898312 0 0
0.00908318 0 0
0.00908318 0 0
0.00918322 0 0
0.00918322 0 0
0.00928325 0 0
0.00928325 0 0
0.00938328 0 0
0.00938328 0 0
0.0094833 0 0
0.0094833 0 0
0.00958331 0 0
0.00958331 0 0
0.00968332 0 0
0.00968332 0 0
0.00978333 0 0
0.00978333 0 0
0.00988333 0 0
0.00988333 0 0
0.00998333 0 0
0.00998333 0 0
0.0100833 0 0
