# vtk DataFile Version 3.0
#This file was generated by the deal.II library on 2018/12/3 at 16:46:00
ASCII
DATASET UNSTRUCTURED_GRID

POINTS 8000 double
0 0 0
0.1 0 0
0 0.1 0
0.1 0.1 0
0 0 0.1
0.1 0 0.1
0 0.1 0.1
0.1 0.1 0.1
0.1 0 0
0.2 0 0
0.1 0.1 0
0.2 0.1 0
0.1 0 0.1
0.2 0 0.1
0.1 0.1 0.1
0.2 0.1 0.1
0.2 0 0
0.3 0 0
0.2 0.1 0
0.3 0.1 0
0.2 0 0.1
0.3 0 0.1
0.2 0.1 0.1
0.3 0.1 0.1
0.3 0 0
0.4 0 0
0.3 0.1 0
0.4 0.1 0
0.3 0 0.1
0.4 0 0.1
0.3 0.1 0.1
0.4 0.1 0.1
0.4 0 0
0.5 0 0
0.4 0.1 0
0.5 0.1 0
0.4 0 0.1
0.5 0 0.1
0.4 0.1 0.1
0.5 0.1 0.1
0.5 0 0
0.6 0 0
0.5 0.1 0
0.6 0.1 0
0.5 0 0.1
0.6 0 0.1
0.5 0.1 0.1
0.6 0.1 0.1
0.6 0 0
0.7 0 0
0.6 0.1 0
0.7 0.1 0
0.6 0 0.1
0.7 0 0.1
0.6 0.1 0.1
0.7 0.1 0.1
0.7 0 0
0.8 0 0
0.7 0.1 0
0.8 0.1 0
0.7 0 0.1
0.8 0 0.1
0.7 0.1 0.1
0.8 0.1 0.1
0.8 0 0
0.9 0 0
0.8 0.1 0
0.9 0.1 0
0.8 0 0.1
0.9 0 0.1
0.8 0.1 0.1
0.9 0.1 0.1
0.9 0 0
1 0 0
0.9 0.1 0
1 0.1 0
0.9 0 0.1
1 0 0.1
0.9 0.1 0.1
1 0.1 0.1
0 0.1 0
0.1 0.1 0
0 0.2 0
0.1 0.2 0
0 0.1 0.1
0.1 0.1 0.1
0 0.2 0.1
0.1 0.2 0.1
0.1 0.1 0
0.2 0.1 0
0.1 0.2 0
0.2 0.2 0
0.1 0.1 0.1
0.2 0.1 0.1
0.1 0.2 0.1
0.2 0.2 0.1
0.2 0.1 0
0.3 0.1 0
0.2 0.2 0
0.3 0.2 0
0.2 0.1 0.1
0.3 0.1 0.1
0.2 0.2 0.1
0.3 0.2 0.1
0.3 0.1 0
0.4 0.1 0
0.3 0.2 0
0.4 0.2 0
0.3 0.1 0.1
0.4 0.1 0.1
0.3 0.2 0.1
0.4 0.2 0.1
0.4 0.1 0
0.5 0.1 0
0.4 0.2 0
0.5 0.2 0
0.4 0.1 0.1
0.5 0.1 0.1
0.4 0.2 0.1
0.5 0.2 0.1
0.5 0.1 0
0.6 0.1 0
0.5 0.2 0
0.6 0.2 0
0.5 0.1 0.1
0.6 0.1 0.1
0.5 0.2 0.1
0.6 0.2 0.1
0.6 0.1 0
0.7 0.1 0
0.6 0.2 0
0.7 0.2 0
0.6 0.1 0.1
0.7 0.1 0.1
0.6 0.2 0.1
0.7 0.2 0.1
0.7 0.1 0
0.8 0.1 0
0.7 0.2 0
0.8 0.2 0
0.7 0.1 0.1
0.8 0.1 0.1
0.7 0.2 0.1
0.8 0.2 0.1
0.8 0.1 0
0.9 0.1 0
0.8 0.2 0
0.9 0.2 0
0.8 0.1 0.1
0.9 0.1 0.1
0.8 0.2 0.1
0.9 0.2 0.1
0.9 0.1 0
1 0.1 0
0.9 0.2 0
1 0.2 0
0.9 0.1 0.1
1 0.1 0.1
0.9 0.2 0.1
1 0.2 0.1
0 0.2 0
0.1 0.2 0
0 0.3 0
0.1 0.3 0
0 0.2 0.1
0.1 0.2 0.1
0 0.3 0.1
0.1 0.3 0.1
0.1 0.2 0
0.2 0.2 0
0.1 0.3 0
0.2 0.3 0
0.1 0.2 0.1
0.2 0.2 0.1
0.1 0.3 0.1
0.2 0.3 0.1
0.2 0.2 0
0.3 0.2 0
0.2 0.3 0
0.3 0.3 0
0.2 0.2 0.1
0.3 0.2 0.1
0.2 0.3 0.1
0.3 0.3 0.1
0.3 0.2 0
0.4 0.2 0
0.3 0.3 0
0.4 0.3 0
0.3 0.2 0.1
0.4 0.2 0.1
0.3 0.3 0.1
0.4 0.3 0.1
0.4 0.2 0
0.5 0.2 0
0.4 0.3 0
0.5 0.3 0
0.4 0.2 0.1
0.5 0.2 0.1
0.4 0.3 0.1
0.5 0.3 0.1
0.5 0.2 0
0.6 0.2 0
0.5 0.3 0
0.6 0.3 0
0.5 0.2 0.1
0.6 0.2 0.1
0.5 0.3 0.1
0.6 0.3 0.1
0.6 0.2 0
0.7 0.2 0
0.6 0.3 0
0.7 0.3 0
0.6 0.2 0.1
0.7 0.2 0.1
0.6 0.3 0.1
0.7 0.3 0.1
0.7 0.2 0
0.8 0.2 0
0.7 0.3 0
0.8 0.3 0
0.7 0.2 0.1
0.8 0.2 0.1
0.7 0.3 0.1
0.8 0.3 0.1
0.8 0.2 0
0.9 0.2 0
0.8 0.3 0
0.9 0.3 0
0.8 0.2 0.1
0.9 0.2 0.1
0.8 0.3 0.1
0.9 0.3 0.1
0.9 0.2 0
1 0.2 0
0.9 0.3 0
1 0.3 0
0.9 0.2 0.1
1 0.2 0.1
0.9 0.3 0.1
1 0.3 0.1
0 0.3 0
0.1 0.3 0
0 0.4 0
0.1 0.4 0
0 0.3 0.1
0.1 0.3 0.1
0 0.4 0.1
0.1 0.4 0.1
0.1 0.3 0
0.2 0.3 0
0.1 0.4 0
0.2 0.4 0
0.1 0.3 0.1
0.2 0.3 0.1
0.1 0.4 0.1
0.2 0.4 0.1
0.2 0.3 0
0.3 0.3 0
0.2 0.4 0
0.3 0.4 0
0.2 0.3 0.1
0.3 0.3 0.1
0.2 0.4 0.1
0.3 0.4 0.1
0.3 0.3 0
0.4 0.3 0
0.3 0.4 0
0.4 0.4 0
0.3 0.3 0.1
0.4 0.3 0.1
0.3 0.4 0.1
0.4 0.4 0.1
0.4 0.3 0
0.5 0.3 0
0.4 0.4 0
0.5 0.4 0
0.4 0.3 0.1
0.5 0.3 0.1
0.4 0.4 0.1
0.5 0.4 0.1
0.5 0.3 0
0.6 0.3 0
0.5 0.4 0
0.6 0.4 0
0.5 0.3 0.1
0.6 0.3 0.1
0.5 0.4 0.1
0.6 0.4 0.1
0.6 0.3 0
0.7 0.3 0
0.6 0.4 0
0.7 0.4 0
0.6 0.3 0.1
0.7 0.3 0.1
0.6 0.4 0.1
0.7 0.4 0.1
0.7 0.3 0
0.8 0.3 0
0.7 0.4 0
0.8 0.4 0
0.7 0.3 0.1
0.8 0.3 0.1
0.7 0.4 0.1
0.8 0.4 0.1
0.8 0.3 0
0.9 0.3 0
0.8 0.4 0
0.9 0.4 0
0.8 0.3 0.1
0.9 0.3 0.1
0.8 0.4 0.1
0.9 0.4 0.1
0.9 0.3 0
1 0.3 0
0.9 0.4 0
1 0.4 0
0.9 0.3 0.1
1 0.3 0.1
0.9 0.4 0.1
1 0.4 0.1
0 0.4 0
0.1 0.4 0
0 0.5 0
0.1 0.5 0
0 0.4 0.1
0.1 0.4 0.1
0 0.5 0.1
0.1 0.5 0.1
0.1 0.4 0
0.2 0.4 0
0.1 0.5 0
0.2 0.5 0
0.1 0.4 0.1
0.2 0.4 0.1
0.1 0.5 0.1
0.2 0.5 0.1
0.2 0.4 0
0.3 0.4 0
0.2 0.5 0
0.3 0.5 0
0.2 0.4 0.1
0.3 0.4 0.1
0.2 0.5 0.1
0.3 0.5 0.1
0.3 0.4 0
0.4 0.4 0
0.3 0.5 0
0.4 0.5 0
0.3 0.4 0.1
0.4 0.4 0.1
0.3 0.5 0.1
0.4 0.5 0.1
0.4 0.4 0
0.5 0.4 0
0.4 0.5 0
0.5 0.5 0
0.4 0.4 0.1
0.5 0.4 0.1
0.4 0.5 0.1
0.5 0.5 0.1
0.5 0.4 0
0.6 0.4 0
0.5 0.5 0
0.6 0.5 0
0.5 0.4 0.1
0.6 0.4 0.1
0.5 0.5 0.1
0.6 0.5 0.1
0.6 0.4 0
0.7 0.4 0
0.6 0.5 0
0.7 0.5 0
0.6 0.4 0.1
0.7 0.4 0.1
0.6 0.5 0.1
0.7 0.5 0.1
0.7 0.4 0
0.8 0.4 0
0.7 0.5 0
0.8 0.5 0
0.7 0.4 0.1
0.8 0.4 0.1
0.7 0.5 0.1
0.8 0.5 0.1
0.8 0.4 0
0.9 0.4 0
0.8 0.5 0
0.9 0.5 0
0.8 0.4 0.1
0.9 0.4 0.1
0.8 0.5 0.1
0.9 0.5 0.1
0.9 0.4 0
1 0.4 0
0.9 0.5 0
1 0.5 0
0.9 0.4 0.1
1 0.4 0.1
0.9 0.5 0.1
1 0.5 0.1
0 0.5 0
0.1 0.5 0
0 0.6 0
0.1 0.6 0
0 0.5 0.1
0.1 0.5 0.1
0 0.6 0.1
0.1 0.6 0.1
0.1 0.5 0
0.2 0.5 0
0.1 0.6 0
0.2 0.6 0
0.1 0.5 0.1
0.2 0.5 0.1
0.1 0.6 0.1
0.2 0.6 0.1
0.2 0.5 0
0.3 0.5 0
0.2 0.6 0
0.3 0.6 0
0.2 0.5 0.1
0.3 0.5 0.1
0.2 0.6 0.1
0.3 0.6 0.1
0.3 0.5 0
0.4 0.5 0
0.3 0.6 0
0.4 0.6 0
0.3 0.5 0.1
0.4 0.5 0.1
0.3 0.6 0.1
0.4 0.6 0.1
0.4 0.5 0
0.5 0.5 0
0.4 0.6 0
0.5 0.6 0
0.4 0.5 0.1
0.5 0.5 0.1
0.4 0.6 0.1
0.5 0.6 0.1
0.5 0.5 0
0.6 0.5 0
0.5 0.6 0
0.6 0.6 0
0.5 0.5 0.1
0.6 0.5 0.1
0.5 0.6 0.1
0.6 0.6 0.1
0.6 0.5 0
0.7 0.5 0
0.6 0.6 0
0.7 0.6 0
0.6 0.5 0.1
0.7 0.5 0.1
0.6 0.6 0.1
0.7 0.6 0.1
0.7 0.5 0
0.8 0.5 0
0.7 0.6 0
0.8 0.6 0
0.7 0.5 0.1
0.8 0.5 0.1
0.7 0.6 0.1
0.8 0.6 0.1
0.8 0.5 0
0.9 0.5 0
0.8 0.6 0
0.9 0.6 0
0.8 0.5 0.1
0.9 0.5 0.1
0.8 0.6 0.1
0.9 0.6 0.1
0.9 0.5 0
1 0.5 0
0.9 0.6 0
1 0.6 0
0.9 0.5 0.1
1 0.5 0.1
0.9 0.6 0.1
1 0.6 0.1
0 0.6 0
0.1 0.6 0
0 0.7 0
0.1 0.7 0
0 0.6 0.1
0.1 0.6 0.1
0 0.7 0.1
0.1 0.7 0.1
0.1 0.6 0
0.2 0.6 0
0.1 0.7 0
0.2 0.7 0
0.1 0.6 0.1
0.2 0.6 0.1
0.1 0.7 0.1
0.2 0.7 0.1
0.2 0.6 0
0.3 0.6 0
0.2 0.7 0
0.3 0.7 0
0.2 0.6 0.1
0.3 0.6 0.1
0.2 0.7 0.1
0.3 0.7 0.1
0.3 0.6 0
0.4 0.6 0
0.3 0.7 0
0.4 0.7 0
0.3 0.6 0.1
0.4 0.6 0.1
0.3 0.7 0.1
0.4 0.7 0.1
0.4 0.6 0
0.5 0.6 0
0.4 0.7 0
0.5 0.7 0
0.4 0.6 0.1
0.5 0.6 0.1
0.4 0.7 0.1
0.5 0.7 0.1
0.5 0.6 0
0.6 0.6 0
0.5 0.7 0
0.6 0.7 0
0.5 0.6 0.1
0.6 0.6 0.1
0.5 0.7 0.1
0.6 0.7 0.1
0.6 0.6 0
0.7 0.6 0
0.6 0.7 0
0.7 0.7 0
0.6 0.6 0.1
0.7 0.6 0.1
0.6 0.7 0.1
0.7 0.7 0.1
0.7 0.6 0
0.8 0.6 0
0.7 0.7 0
0.8 0.7 0
0.7 0.6 0.1
0.8 0.6 0.1
0.7 0.7 0.1
0.8 0.7 0.1
0.8 0.6 0
0.9 0.6 0
0.8 0.7 0
0.9 0.7 0
0.8 0.6 0.1
0.9 0.6 0.1
0.8 0.7 0.1
0.9 0.7 0.1
0.9 0.6 0
1 0.6 0
0.9 0.7 0
1 0.7 0
0.9 0.6 0.1
1 0.6 0.1
0.9 0.7 0.1
1 0.7 0.1
0 0.7 0
0.1 0.7 0
0 0.8 0
0.1 0.8 0
0 0.7 0.1
0.1 0.7 0.1
0 0.8 0.1
0.1 0.8 0.1
0.1 0.7 0
0.2 0.7 0
0.1 0.8 0
0.2 0.8 0
0.1 0.7 0.1
0.2 0.7 0.1
0.1 0.8 0.1
0.2 0.8 0.1
0.2 0.7 0
0.3 0.7 0
0.2 0.8 0
0.3 0.8 0
0.2 0.7 0.1
0.3 0.7 0.1
0.2 0.8 0.1
0.3 0.8 0.1
0.3 0.7 0
0.4 0.7 0
0.3 0.8 0
0.4 0.8 0
0.3 0.7 0.1
0.4 0.7 0.1
0.3 0.8 0.1
0.4 0.8 0.1
0.4 0.7 0
0.5 0.7 0
0.4 0.8 0
0.5 0.8 0
0.4 0.7 0.1
0.5 0.7 0.1
0.4 0.8 0.1
0.5 0.8 0.1
0.5 0.7 0
0.6 0.7 0
0.5 0.8 0
0.6 0.8 0
0.5 0.7 0.1
0.6 0.7 0.1
0.5 0.8 0.1
0.6 0.8 0.1
0.6 0.7 0
0.7 0.7 0
0.6 0.8 0
0.7 0.8 0
0.6 0.7 0.1
0.7 0.7 0.1
0.6 0.8 0.1
0.7 0.8 0.1
0.7 0.7 0
0.8 0.7 0
0.7 0.8 0
0.8 0.8 0
0.7 0.7 0.1
0.8 0.7 0.1
0.7 0.8 0.1
0.8 0.8 0.1
0.8 0.7 0
0.9 0.7 0
0.8 0.8 0
0.9 0.8 0
0.8 0.7 0.1
0.9 0.7 0.1
0.8 0.8 0.1
0.9 0.8 0.1
0.9 0.7 0
1 0.7 0
0.9 0.8 0
1 0.8 0
0.9 0.7 0.1
1 0.7 0.1
0.9 0.8 0.1
1 0.8 0.1
0 0.8 0
0.1 0.8 0
0 0.9 0
0.1 0.9 0
0 0.8 0.1
0.1 0.8 0.1
0 0.9 0.1
0.1 0.9 0.1
0.1 0.8 0
0.2 0.8 0
0.1 0.9 0
0.2 0.9 0
0.1 0.8 0.1
0.2 0.8 0.1
0.1 0.9 0.1
0.2 0.9 0.1
0.2 0.8 0
0.3 0.8 0
0.2 0.9 0
0.3 0.9 0
0.2 0.8 0.1
0.3 0.8 0.1
0.2 0.9 0.1
0.3 0.9 0.1
0.3 0.8 0
0.4 0.8 0
0.3 0.9 0
0.4 0.9 0
0.3 0.8 0.1
0.4 0.8 0.1
0.3 0.9 0.1
0.4 0.9 0.1
0.4 0.8 0
0.5 0.8 0
0.4 0.9 0
0.5 0.9 0
0.4 0.8 0.1
0.5 0.8 0.1
0.4 0.9 0.1
0.5 0.9 0.1
0.5 0.8 0
0.6 0.8 0
0.5 0.9 0
0.6 0.9 0
0.5 0.8 0.1
0.6 0.8 0.1
0.5 0.9 0.1
0.6 0.9 0.1
0.6 0.8 0
0.7 0.8 0
0.6 0.9 0
0.7 0.9 0
0.6 0.8 0.1
0.7 0.8 0.1
0.6 0.9 0.1
0.7 0.9 0.1
0.7 0.8 0
0.8 0.8 0
0.7 0.9 0
0.8 0.9 0
0.7 0.8 0.1
0.8 0.8 0.1
0.7 0.9 0.1
0.8 0.9 0.1
0.8 0.8 0
0.9 0.8 0
0.8 0.9 0
0.9 0.9 0
0.8 0.8 0.1
0.9 0.8 0.1
0.8 0.9 0.1
0.9 0.9 0.1
0.9 0.8 0
1 0.8 0
0.9 0.9 0
1 0.9 0
0.9 0.8 0.1
1 0.8 0.1
0.9 0.9 0.1
1 0.9 0.1
0 0.9 0
0.1 0.9 0
0 1 0
0.1 1 0
0 0.9 0.1
0.1 0.9 0.1
0 1 0.1
0.1 1 0.1
0.1 0.9 0
0.2 0.9 0
0.1 1 0
0.2 1 0
0.1 0.9 0.1
0.2 0.9 0.1
0.1 1 0.1
0.2 1 0.1
0.2 0.9 0
0.3 0.9 0
0.2 1 0
0.3 1 0
0.2 0.9 0.1
0.3 0.9 0.1
0.2 1 0.1
0.3 1 0.1
0.3 0.9 0
0.4 0.9 0
0.3 1 0
0.4 1 0
0.3 0.9 0.1
0.4 0.9 0.1
0.3 1 0.1
0.4 1 0.1
0.4 0.9 0
0.5 0.9 0
0.4 1 0
0.5 1 0
0.4 0.9 0.1
0.5 0.9 0.1
0.4 1 0.1
0.5 1 0.1
0.5 0.9 0
0.6 0.9 0
0.5 1 0
0.6 1 0
0.5 0.9 0.1
0.6 0.9 0.1
0.5 1 0.1
0.6 1 0.1
0.6 0.9 0
0.7 0.9 0
0.6 1 0
0.7 1 0
0.6 0.9 0.1
0.7 0.9 0.1
0.6 1 0.1
0.7 1 0.1
0.7 0.9 0
0.8 0.9 0
0.7 1 0
0.8 1 0
0.7 0.9 0.1
0.8 0.9 0.1
0.7 1 0.1
0.8 1 0.1
0.8 0.9 0
0.9 0.9 0
0.8 1 0
0.9 1 0
0.8 0.9 0.1
0.9 0.9 0.1
0.8 1 0.1
0.9 1 0.1
0.9 0.9 0
1 0.9 0
0.9 1 0
1 1 0
0.9 0.9 0.1
1 0.9 0.1
0.9 1 0.1
1 1 0.1
0 0 0.1
0.1 0 0.1
0 0.1 0.1
0.1 0.1 0.1
0 0 0.2
0.1 0 0.2
0 0.1 0.2
0.1 0.1 0.2
0.1 0 0.1
0.2 0 0.1
0.1 0.1 0.1
0.2 0.1 0.1
0.1 0 0.2
0.2 0 0.2
0.1 0.1 0.2
0.2 0.1 0.2
0.2 0 0.1
0.3 0 0.1
0.2 0.1 0.1
0.3 0.1 0.1
0.2 0 0.2
0.3 0 0.2
0.2 0.1 0.2
0.3 0.1 0.2
0.3 0 0.1
0.4 0 0.1
0.3 0.1 0.1
0.4 0.1 0.1
0.3 0 0.2
0.4 0 0.2
0.3 0.1 0.2
0.4 0.1 0.2
0.4 0 0.1
0.5 0 0.1
0.4 0.1 0.1
0.5 0.1 0.1
0.4 0 0.2
0.5 0 0.2
0.4 0.1 0.2
0.5 0.1 0.2
0.5 0 0.1
0.6 0 0.1
0.5 0.1 0.1
0.6 0.1 0.1
0.5 0 0.2
0.6 0 0.2
0.5 0.1 0.2
0.6 0.1 0.2
0.6 0 0.1
0.7 0 0.1
0.6 0.1 0.1
0.7 0.1 0.1
0.6 0 0.2
0.7 0 0.2
0.6 0.1 0.2
0.7 0.1 0.2
0.7 0 0.1
0.8 0 0.1
0.7 0.1 0.1
0.8 0.1 0.1
0.7 0 0.2
0.8 0 0.2
0.7 0.1 0.2
0.8 0.1 0.2
0.8 0 0.1
0.9 0 0.1
0.8 0.1 0.1
0.9 0.1 0.1
0.8 0 0.2
0.9 0 0.2
0.8 0.1 0.2
0.9 0.1 0.2
0.9 0 0.1
1 0 0.1
0.9 0.1 0.1
1 0.1 0.1
0.9 0 0.2
1 0 0.2
0.9 0.1 0.2
1 0.1 0.2
0 0.1 0.1
0.1 0.1 0.1
0 0.2 0.1
0.1 0.2 0.1
0 0.1 0.2
0.1 0.1 0.2
0 0.2 0.2
0.1 0.2 0.2
0.1 0.1 0.1
0.2 0.1 0.1
0.1 0.2 0.1
0.2 0.2 0.1
0.1 0.1 0.2
0.2 0.1 0.2
0.1 0.2 0.2
0.2 0.2 0.2
0.2 0.1 0.1
0.3 0.1 0.1
0.2 0.2 0.1
0.3 0.2 0.1
0.2 0.1 0.2
0.3 0.1 0.2
0.2 0.2 0.2
0.3 0.2 0.2
0.3 0.1 0.1
0.4 0.1 0.1
0.3 0.2 0.1
0.4 0.2 0.1
0.3 0.1 0.2
0.4 0.1 0.2
0.3 0.2 0.2
0.4 0.2 0.2
0.4 0.1 0.1
0.5 0.1 0.1
0.4 0.2 0.1
0.5 0.2 0.1
0.4 0.1 0.2
0.5 0.1 0.2
0.4 0.2 0.2
0.5 0.2 0.2
0.5 0.1 0.1
0.6 0.1 0.1
[...]
POINT_DATA 8000
VECTORS u double
0 0 0
0 0 0
0 0 0
0 0 0
0.000112373 1.8825e-05 7.45769e-05
0.000104872 5.38839e-05 7.17258e-05
8.80134e-05 1.14453e-05 5.94721e-05
7.93259e-05 3.26544e-05 5.40342e-05
0 0 0
0 0 0
0 0 0
0 0 0
0.000104872 5.38839e-05 7.17258e-05
0.000100943 9.26825e-05 0.000115159
7.93259e-05 3.26544e-05 5.40342e-05
7.34962e-05 5.75654e-05 8.45116e-05
0 0 0
0 0 0
0 0 0
0 0 0
0.000100943 9.26825e-05 0.000115159
9.32046e-05 0.00013405 0.000166767
7.34962e-05 5.75654e-05 8.45116e-05
6.47236e-05 8.39779e-05 0.000122244
0 0 0
0 0 0
0 0 0
0 0 0
9.32046e-05 0.00013405 0.000166767
7.95552e-05 0.000176405 0.000220613
6.47236e-05 8.39779e-05 0.000122244
5.0835e-05 0.000110808 0.000162091
0 0 0
0 0 0
0 0 0
0 0 0
7.95552e-05 0.000176405 0.000220613
5.91288e-05 0.0002186 0.000275337
5.0835e-05 0.000110808 0.000162091
3.07694e-05 0.000137328 0.00020304
0 0 0
0 0 0
0 0 0
0 0 0
5.91288e-05 0.0002186 0.000275337
3.04644e-05 0.000259767 0.000330723
3.07694e-05 0.000137328 0.00020304
2.95105e-06 0.000162935 0.000245172
0 0 0
0 0 0
0 0 0
0 0 0
3.04644e-05 0.000259767 0.000330723
-9.41044e-06 0.000298968 0.000387346
2.95105e-06 0.000162935 0.000245172
-3.56694e-05 0.000186996 0.000289372
0 0 0
0 0 0
0 0 0
0 0 0
-9.41044e-06 0.000298968 0.000387346
-6.68696e-05 0.000334832 0.000447817
-3.56694e-05 0.000186996 0.000289372
-9.17117e-05 0.000208763 0.000338582
0 0 0
0 0 0
0 0 0
0 0 0
-6.68696e-05 0.000334832 0.000447817
-0.000156275 0.000364081 0.000522593
-9.17117e-05 0.000208763 0.000338582
-0.00018125 0.000227922 0.000403751
0 0 0
0 0 0
0 0 0
0 0 0
-0.000156275 0.000364081 0.000522593
-0.000295296 0.000388844 0.00065342
-0.00018125 0.000227922 0.000403751
-0.000329951 0.000249702 0.000534847
0 0 0
0 0 0
0 0 0
0 0 0
8.80134e-05 1.14453e-05 5.94721e-05
7.93259e-05 3.26544e-05 5.40342e-05
7.4253e-05 6.89262e-06 4.67511e-05
6.64102e-05 1.99916e-05 4.69954e-05
0 0 0
0 0 0
0 0 0
0 0 0
7.93259e-05 3.26544e-05 5.40342e-05
7.34962e-05 5.75654e-05 8.45116e-05
6.64102e-05 1.99916e-05 4.69954e-05
5.99931e-05 3.60274e-05 7.65297e-05
0 0 0
0 0 0
0 0 0
0 0 0
7.34962e-05 5.75654e-05 8.45116e-05
6.47236e-05 8.39779e-05 0.000122244
5.99931e-05 3.60274e-05 7.65297e-05
5.06558e-05 5.30347e-05 0.000111701
0 0 0
0 0 0
0 0 0
0 0 0
6.47236e-05 8.39779e-05 0.000122244
5.0835e-05 0.000110808 0.000162091
5.06558e-05 5.30347e-05 0.000111701
3.64593e-05 7.01755e-05 0.000148559
0 0 0
0 0 0
0 0 0
0 0 0
5.0835e-05 0.000110808 0.000162091
3.07694e-05 0.000137328 0.00020304
3.64593e-05 7.01755e-05 0.000148559
1.62769e-05 8.69547e-05 0.000186403
0 0 0
0 0 0
0 0 0
0 0 0
3.07694e-05 0.000137328 0.00020304
2.95105e-06 0.000162935 0.000245172
1.62769e-05 8.69547e-05 0.000186403
-1.1627e-05 0.000102978 0.00022541
0 0 0
0 0 0
0 0 0
0 0 0
2.95105e-06 0.000162935 0.000245172
-3.56694e-05 0.000186996 0.000289372
-1.1627e-05 0.000102978 0.00022541
-5.05838e-05 0.000117919 0.000266505
0 0 0
0 0 0
0 0 0
0 0 0
-3.56694e-05 0.000186996 0.000289372
-9.17117e-05 0.000208763 0.000338582
-5.05838e-05 0.000117919 0.000266505
-0.00010774 0.000131706 0.000312735
0 0 0
0 0 0
0 0 0
0 0 0
-9.17117e-05 0.000208763 0.000338582
-0.00018125 0.000227922 0.000403751
-0.00010774 0.000131706 0.000312735
-0.000199919 0.000145216 0.000376098
0 0 0
0 0 0
0 0 0
0 0 0
-0.00018125 0.000227922 0.000403751
-0.000329951 0.000249702 0.000534847
-0.000199919 0.000145216 0.000376098
-0.000353262 0.00016092 0.000516225
0 0 0
0 0 0
0 0 0
0 0 0
7.4253e-05 6.89262e-06 4.67511e-05
6.64102e-05 1.99916e-05 4.69954e-05
6.61404e-05 4.18201e-06 3.88615e-05
5.94934e-05 1.18626e-05 4.31506e-05
0 0 0
0 0 0
0 0 0
0 0 0
6.64102e-05 1.99916e-05 4.69954e-05
5.99931e-05 3.60274e-05 7.65297e-05
5.94934e-05 1.18626e-05 4.31506e-05
5.29076e-05 2.15668e-05 7.33752e-05
0 0 0
0 0 0
0 0 0
0 0 0
5.99931e-05 3.60274e-05 7.65297e-05
5.06558e-05 5.30347e-05 0.000111701
5.29076e-05 2.15668e-05 7.33752e-05
4.31486e-05 3.19379e-05 0.00010818
0 0 0
0 0 0
0 0 0
0 0 0
5.06558e-05 5.30347e-05 0.000111701
3.64593e-05 7.01755e-05 0.000148559
4.31486e-05 3.19379e-05 0.00010818
2.85821e-05 4.23543e-05 0.000144298
0 0 0
0 0 0
0 0 0
0 0 0
3.64593e-05 7.01755e-05 0.000148559
1.62769e-05 8.69547e-05 0.000186403
2.85821e-05 4.23543e-05 0.000144298
8.0597e-06 5.24841e-05 0.00018125
0 0 0
0 0 0
0 0 0
0 0 0
1.62769e-05 8.69547e-05 0.000186403
-1.1627e-05 0.000102978 0.00022541
8.0597e-06 5.24841e-05 0.00018125
-2.02725e-05 6.21037e-05 0.000219295
0 0 0
0 0 0
0 0 0
0 0 0
-1.1627e-05 0.000102978 0.00022541
-5.05838e-05 0.000117919 0.000266505
-2.02725e-05 6.21037e-05 0.000219295
-5.98955e-05 7.11062e-05 0.000259413
0 0 0
0 0 0
0 0 0
0 0 0
-5.05838e-05 0.000117919 0.000266505
-0.00010774 0.000131706 0.000312735
-5.98955e-05 7.11062e-05 0.000259413
-0.000118046 7.96727e-05 0.000304831
0 0 0
0 0 0
0 0 0
0 0 0
-0.00010774 0.000131706 0.000312735
-0.000199919 0.000145216 0.000376098
-0.000118046 7.96727e-05 0.000304831
-0.00021148 8.85304e-05 0.000368466
0 0 0
0 0 0
0 0 0
0 0 0
-0.000199919 0.000145216 0.000376098
-0.000353262 0.00016092 0.000516225
-0.00021148 8.85304e-05 0.000368466
-0.000366877 9.8433e-05 0.000515252
0 0 0
0 0 0
0 0 0
0 0 0
6.61404e-05 4.18201e-06 3.88615e-05
5.94934e-05 1.18626e-05 4.31506e-05
6.18425e-05 2.02455e-06 3.45148e-05
5.60197e-05 5.59025e-06 4.1066e-05
0 0 0
0 0 0
0 0 0
0 0 0
5.94934e-05 1.18626e-05 4.31506e-05
5.29076e-05 2.15668e-05 7.33752e-05
5.60197e-05 5.59025e-06 4.1066e-05
4.94157e-05 1.01797e-05 7.18998e-05
0 0 0
0 0 0
0 0 0
0 0 0
5.29076e-05 2.15668e-05 7.33752e-05
4.31486e-05 3.19379e-05 0.00010818
4.94157e-05 1.01797e-05 7.18998e-05
3.9395e-05 1.51184e-05 0.000106749
0 0 0
0 0 0
0 0 0
0 0 0
4.31486e-05 3.19379e-05 0.00010818
2.85821e-05 4.23543e-05 0.000144298
3.9395e-05 1.51184e-05 0.000106749
2.45433e-05 2.00762e-05 0.000142683
0 0 0
0 0 0
0 0 0
0 0 0
2.85821e-05 4.23543e-05 0.000144298
8.0597e-06 5.24841e-05 0.00018125
2.45433e-05 2.00762e-05 0.000142683
3.72135e-06 2.48834e-05 0.000179347
0 0 0
0 0 0
0 0 0
0 0 0
8.0597e-06 5.24841e-05 0.00018125
-2.02725e-05 6.21037e-05 0.000219295
3.72135e-06 2.48834e-05 0.000179347
-2.49751e-05 2.94422e-05 0.000217058
0 0 0
0 0 0
0 0 0
0 0 0
-2.02725e-05 6.21037e-05 0.000219295
-5.98955e-05 7.11062e-05 0.000259413
-2.49751e-05 2.94422e-05 0.000217058
-6.5063e-05 3.37363e-05 0.000256844
0 0 0
0 0 0
0 0 0
0 0 0
-5.98955e-05 7.11062e-05 0.000259413
-0.000118046 7.96727e-05 0.000304831
-6.5063e-05 3.37363e-05 0.000256844
-0.000123738 3.79066e-05 0.00030207
0 0 0
0 0 0
0 0 0
0 0 0
-0.000118046 7.96727e-05 0.000304831
-0.00021148 8.85304e-05 0.000368466
-0.000123738 3.79066e-05 0.00030207
-0.000217724 4.22937e-05 0.000366197
0 0 0
0 0 0
0 0 0
0 0 0
-0.00021148 8.85304e-05 0.000368466
-0.000366877 9.8433e-05 0.000515252
-0.000217724 4.22937e-05 0.000366197
-0.000374329 4.70663e-05 0.000516821
0 0 0
0 0 0
0 0 0
0 0 0
6.18425e-05 2.02455e-06 3.45148e-05
5.60197e-05 5.59025e-06 4.1066e-05
6.04919e-05 -1.44462e-17 3.31198e-05
5.49552e-05 -1.32668e-17 4.03942e-05
0 0 0
0 0 0
0 0 0
0 0 0
5.60197e-05 5.59025e-06 4.1066e-05
4.94157e-05 1.01797e-05 7.18998e-05
5.49552e-05 -1.32668e-17 4.03942e-05
4.83571e-05 -1.18826e-17 7.14466e-05
0 0 0
0 0 0
0 0 0
0 0 0
4.94157e-05 1.01797e-05 7.18998e-05
3.9395e-05 1.51184e-05 0.000106749
4.83571e-05 -1.18826e-17 7.14466e-05
3.82485e-05 -1.03521e-17 0.000106338
0 0 0
0 0 0
0 0 0
0 0 0
3.9395e-05 1.51184e-05 0.000106749
2.45433e-05 2.00762e-05 0.000142683
3.82485e-05 -1.03521e-17 0.000106338
2.32919e-05 -8.8795e-18 0.000142237
0 0 0
0 0 0
0 0 0
0 0 0
2.45433e-05 2.00762e-05 0.000142683
3.72135e-06 2.48834e-05 0.000179347
2.32919e-05 -8.8795e-18 0.000142237
2.35606e-06 -7.4121e-18 0.000178832
0 0 0
0 0 0
0 0 0
0 0 0
3.72135e-06 2.48834e-05 0.000179347
-2.49751e-05 2.94422e-05 0.000217058
2.35606e-06 -7.4121e-18 0.000178832
-2.64748e-05 -5.90367e-18 0.000216458
0 0 0
0 0 0
0 0 0
0 0 0
-2.49751e-05 2.94422e-05 0.000217058
-6.5063e-05 3.37363e-05 0.000256844
-2.64748e-05 -5.90367e-18 0.000216458
-6.67198e-05 -4.34037e-18 0.000256162
0 0 0
0 0 0
0 0 0
0 0 0
-6.5063e-05 3.37363e-05 0.000256844
-0.000123738 3.79066e-05 0.00030207
-6.67198e-05 -4.34037e-18 0.000256162
-0.000125552 -2.91184e-18 0.000301358
0 0 0
0 0 0
0 0 0
0 0 0
-0.000123738 3.79066e-05 0.00030207
-0.000217724 4.22937e-05 0.000366197
-0.000125552 -2.91184e-18 0.000301358
-0.000219701 -1.68878e-18 0.000365686
0 0 0
0 0 0
0 0 0
0 0 0
-0.000217724 4.22937e-05 0.000366197
-0.000374329 4.70663e-05 0.000516821
-0.000219701 -1.68878e-18 0.000365686
-0.000376708 -7.37641e-19 0.000517554
0 0 0
0 0 0
0 0 0
0 0 0
6.04919e-05 -1.44462e-17 3.31198e-05
5.49552e-05 -1.32668e-17 4.03942e-05
6.18425e-05 -2.02455e-06 3.45148e-05
5.60197e-05 -5.59025e-06 4.1066e-05
0 0 0
0 0 0
0 0 0
0 0 0
5.49552e-05 -1.32668e-17 4.03942e-05
4.83571e-05 -1.18826e-17 7.14466e-05
5.60197e-05 -5.59025e-06 4.1066e-05
4.94157e-05 -1.01797e-05 7.18998e-05
0 0 0
0 0 0
0 0 0
0 0 0
4.83571e-05 -1.18826e-17 7.14466e-05
3.82485e-05 -1.03521e-17 0.000106338
4.94157e-05 -1.01797e-05 7.18998e-05
3.9395e-05 -1.51184e-05 0.000106749
0 0 0
0 0 0
0 0 0
0 0 0
3.82485e-05 -1.03521e-17 0.000106338
2.32919e-05 -8.8795e-18 0.000142237
3.9395e-05 -1.51184e-05 0.000106749
2.45433e-05 -2.00762e-05 0.000142683
0 0 0
0 0 0
0 0 0
0 0 0
2.32919e-05 -8.8795e-18 0.000142237
2.35606e-06 -7.4121e-18 0.000178832
2.45433e-05 -2.00762e-05 0.000142683
3.72135e-06 -2.48834e-05 0.000179347
0 0 0
0 0 0
0 0 0
0 0 0
2.35606e-06 -7.4121e-18 0.000178832
-2.64748e-05 -5.90367e-18 0.000216458
3.72135e-06 -2.48834e-05 0.000179347
-2.49751e-05 -2.94422e-05 0.000217058
0 0 0
0 0 0
0 0 0
0 0 0
-2.64748e-05 -5.90367e-18 0.000216458
-6.67198e-05 -4.34037e-18 0.000256162
-2.49751e-05 -2.94422e-05 0.000217058
-6.5063e-05 -3.37363e-05 0.000256844
0 0 0
0 0 0
0 0 0
0 0 0
-6.67198e-05 -4.34037e-18 0.000256162
-0.000125552 -2.91184e-18 0.000301358
-6.5063e-05 -3.37363e-05 0.000256844
-0.000123738 -3.79066e-05 0.00030207
0 0 0
0 0 0
0 0 0
0 0 0
-0.000125552 -2.91184e-18 0.000301358
-0.000219701 -1.68878e-18 0.000365686
-0.000123738 -3.79066e-05 0.00030207
-0.000217724 -4.22937e-05 0.000366197
0 0 0
0 0 0
0 0 0
0 0 0
-0.000219701 -1.68878e-18 0.000365686
-0.000376708 -7.37641e-19 0.000517554
-0.000217724 -4.22937e-05 0.000366197
-0.000374329 -4.70663e-05 0.000516821
0 0 0
0 0 0
0 0 0
0 0 0
6.18425e-05 -2.02455e-06 3.45148e-05
5.60197e-05 -5.59025e-06 4.1066e-05
6.61404e-05 -4.18201e-06 3.88615e-05
5.94934e-05 -1.18626e-05 4.31506e-05
0 0 0
0 0 0
0 0 0
0 0 0
5.60197e-05 -5.59025e-06 4.1066e-05
4.94157e-05 -1.01797e-05 7.18998e-05
5.94934e-05 -1.18626e-05 4.31506e-05
5.29076e-05 -2.15668e-05 7.33752e-05
0 0 0
0 0 0
0 0 0
0 0 0
4.94157e-05 -1.01797e-05 7.18998e-05
3.9395e-05 -1.51184e-05 0.000106749
5.29076e-05 -2.15668e-05 7.33752e-05
4.31486e-05 -3.19379e-05 0.00010818
0 0 0
0 0 0
0 0 0
0 0 0
3.9395e-05 -1.51184e-05 0.000106749
2.45433e-05 -2.00762e-05 0.000142683
4.31486e-05 -3.19379e-05 0.00010818
2.85821e-05 -4.23543e-05 0.000144298
0 0 0
0 0 0
0 0 0
0 0 0
2.45433e-05 -2.00762e-05 0.000142683
3.72135e-06 -2.48834e-05 0.000179347
2.85821e-05 -4.23543e-05 0.000144298
8.0597e-06 -5.24841e-05 0.00018125
0 0 0
0 0 0
0 0 0
0 0 0
3.72135e-06 -2.48834e-05 0.000179347
-2.49751e-05 -2.94422e-05 0.000217058
8.0597e-06 -5.24841e-05 0.00018125
-2.02725e-05 -6.21037e-05 0.000219295
0 0 0
0 0 0
0 0 0
0 0 0
-2.49751e-05 -2.94422e-05 0.000217058
-6.5063e-05 -3.37363e-05 0.000256844
-2.02725e-05 -6.21037e-05 0.000219295
-5.98955e-05 -7.11062e-05 0.000259413
0 0 0
0 0 0
0 0 0
0 0 0
-6.5063e-05 -3.37363e-05 0.000256844
-0.000123738 -3.79066e-05 0.00030207
-5.98955e-05 -7.11062e-05 0.000259413
-0.000118046 -7.96727e-05 0.000304831
0 0 0
0 0 0
0 0 0
0 0 0
-0.000123738 -3.79066e-05 0.00030207
-0.000217724 -4.22937e-05 0.000366197
-0.000118046 -7.96727e-05 0.000304831
-0.00021148 -8.85304e-05 0.000368466
0 0 0
0 0 0
0 0 0
0 0 0
-0.000217724 -4.22937e-05 0.000366197
-0.000374329 -4.70663e-05 0.000516821
-0.00021148 -8.85304e-05 0.000368466
-0.000366877 -9.8433e-05 0.000515252
0 0 0
0 0 0
0 0 0
0 0 0
6.61404e-05 -4.18201e-06 3.88615e-05
5.94934e-05 -1.18626e-05 4.31506e-05
7.4253e-05 -6.89262e-06 4.67511e-05
6.64102e-05 -1.99916e-05 4.69954e-05
0 0 0
0 0 0
0 0 0
0 0 0
5.94934e-05 -1.18626e-05 4.31506e-05
5.29076e-05 -2.15668e-05 7.33752e-05
6.64102e-05 -1.99916e-05 4.69954e-05
5.99931e-05 -3.60274e-05 7.65297e-05
0 0 0
0 0 0
0 0 0
0 0 0
5.29076e-05 -2.15668e-05 7.33752e-05
4.31486e-05 -3.19379e-05 0.00010818
5.99931e-05 -3.60274e-05 7.65297e-05
5.06558e-05 -5.30347e-05 0.000111701
0 0 0
0 0 0
0 0 0
0 0 0
4.31486e-05 -3.19379e-05 0.00010818
2.85821e-05 -4.23543e-05 0.000144298
5.06558e-05 -5.30347e-05 0.000111701
3.64593e-05 -7.01755e-05 0.000148559
0 0 0
0 0 0
0 0 0
0 0 0
2.85821e-05 -4.23543e-05 0.000144298
8.0597e-06 -5.24841e-05 0.00018125
3.64593e-05 -7.01755e-05 0.000148559
1.62769e-05 -8.69547e-05 0.000186403
0 0 0
0 0 0
0 0 0
0 0 0
8.0597e-06 -5.24841e-05 0.00018125
-2.02725e-05 -6.21037e-05 0.000219295
1.62769e-05 -8.69547e-05 0.000186403
-1.1627e-05 -0.000102978 0.00022541
0 0 0
0 0 0
0 0 0
0 0 0
-2.02725e-05 -6.21037e-05 0.000219295
-5.98955e-05 -7.11062e-05 0.000259413
-1.1627e-05 -0.000102978 0.00022541
-5.05838e-05 -0.000117919 0.000266505
0 0 0
0 0 0
0 0 0
0 0 0
-5.98955e-05 -7.11062e-05 0.000259413
-0.000118046 -7.96727e-05 0.000304831
-5.05838e-05 -0.000117919 0.000266505
-0.00010774 -0.000131706 0.000312735
0 0 0
0 0 0
0 0 0
0 0 0
-0.000118046 -7.96727e-05 0.000304831
-0.00021148 -8.85304e-05 0.000368466
-0.00010774 -0.000131706 0.000312735
-0.000199919 -0.000145216 0.000376098
0 0 0
0 0 0
0 0 0
0 0 0
-0.00021148 -8.85304e-05 0.000368466
-0.000366877 -9.8433e-05 0.000515252
-0.000199919 -0.000145216 0.000376098
-0.000353262 -0.00016092 0.000516225
0 0 0
0 0 0
0 0 0
0 0 0
7.4253e-05 -6.89262e-06 4.67511e-05
6.64102e-05 -1.99916e-05 4.69954e-05
8.80134e-05 -1.14453e-05 5.94721e-05
7.93259e-05 -3.26544e-05 5.40342e-05
0 0 0
0 0 0
0 0 0
0 0 0
6.64102e-05 -1.99916e-05 4.69954e-05
5.99931e-05 -3.60274e-05 7.65297e-05
7.93259e-05 -3.26544e-05 5.40342e-05
7.34962e-05 -5.75654e-05 8.45116e-05
0 0 0
0 0 0
0 0 0
0 0 0
5.99931e-05 -3.60274e-05 7.65297e-05
5.06558e-05 -5.30347e-05 0.000111701
7.34962e-05 -5.75654e-05 8.45116e-05
6.47236e-05 -8.39779e-05 0.000122244
0 0 0
0 0 0
0 0 0
0 0 0
5.06558e-05 -5.30347e-05 0.000111701
3.64593e-05 -7.01755e-05 0.000148559
6.47236e-05 -8.39779e-05 0.000122244
5.0835e-05 -0.000110808 0.000162091
0 0 0
0 0 0
0 0 0
0 0 0
3.64593e-05 -7.01755e-05 0.000148559
1.62769e-05 -8.69547e-05 0.000186403
5.0835e-05 -0.000110808 0.000162091
3.07694e-05 -0.000137328 0.00020304
0 0 0
0 0 0
0 0 0
0 0 0
1.62769e-05 -8.69547e-05 0.000186403
-1.1627e-05 -0.000102978 0.00022541
3.07694e-05 -0.000137328 0.00020304
2.95105e-06 -0.000162935 0.000245172
0 0 0
0 0 0
0 0 0
0 0 0
-1.1627e-05 -0.000102978 0.00022541
-5.05838e-05 -0.000117919 0.000266505
2.95105e-06 -0.000162935 0.000245172
-3.56694e-05 -0.000186996 0.000289372
0 0 0
0 0 0
0 0 0
0 0 0
-5.05838e-05 -0.000117919 0.000266505
-0.00010774 -0.000131706 0.000312735
-3.56694e-05 -0.000186996 0.000289372
-9.17117e-05 -0.000208763 0.000338582
0 0 0
0 0 0
0 0 0
0 0 0
-0.00010774 -0.000131706 0.000312735
-0.000199919 -0.000145216 0.000376098
-9.17117e-05 -0.000208763 0.000338582
-0.00018125 -0.000227922 0.000403751
0 0 0
0 0 0
0 0 0
0 0 0
-0.000199919 -0.000145216 0.000376098
-0.000353262 -0.00016092 0.000516225
-0.00018125 -0.000227922 0.000403751
-0.000329951 -0.000249702 0.000534847
0 0 0
0 0 0
0 0 0
0 0 0
8.80134e-05 -1.14453e-05 5.94721e-05
7.93259e-05 -3.26544e-05 5.40342e-05
0.000112373 -1.8825e-05 7.45769e-05
0.000104872 -5.38839e-05 7.17258e-05
0 0 0
0 0 0
0 0 0
0 0 0
7.93259e-05 -3.26544e-05 5.40342e-05
7.34962e-05 -5.75654e-05 8.45116e-05
0.000104872 -5.38839e-05 7.17258e-05
0.000100943 -9.26825e-05 0.000115159
0 0 0
0 0 0
0 0 0
0 0 0
7.34962e-05 -5.75654e-05 8.45116e-05
6.47236e-05 -8.39779e-05 0.000122244
0.000100943 -9.26825e-05 0.000115159
9.32046e-05 -0.00013405 0.000166767
0 0 0
0 0 0
0 0 0
0 0 0
6.47236e-05 -8.39779e-05 0.000122244
5.0835e-05 -0.000110808 0.000162091
9.32046e-05 -0.00013405 0.000166767
7.95552e-05 -0.000176405 0.000220613
0 0 0
0 0 0
0 0 0
0 0 0
5.0835e-05 -0.000110808 0.000162091
3.07694e-05 -0.000137328 0.00020304
7.95552e-05 -0.000176405 0.000220613
5.91288e-05 -0.0002186 0.000275337
0 0 0
0 0 0
0 0 0
0 0 0
3.07694e-05 -0.000137328 0.00020304
2.95105e-06 -0.000162935 0.000245172
5.91288e-05 -0.0002186 0.000275337
3.04644e-05 -0.000259767 0.000330723
0 0 0
0 0 0
0 0 0
0 0 0
2.95105e-06 -0.000162935 0.000245172
-3.56694e-05 -0.000186996 0.000289372
3.04644e-05 -0.000259767 0.000330723
-9.41044e-06 -0.000298968 0.000387346
0 0 0
0 0 0
0 0 0
0 0 0
-3.56694e-05 -0.000186996 0.000289372
-9.17117e-05 -0.000208763 0.000338582
-9.41044e-06 -0.000298968 0.000387346
-6.68696e-05 -0.000334832 0.000447817
0 0 0
0 0 0
0 0 0
0 0 0
-9.17117e-05 -0.000208763 0.000338582
-0.00018125 -0.000227922 0.000403751
-6.68696e-05 -0.000334832 0.000447817
-0.000156275 -0.000364081 0.000522593
0 0 0
0 0 0
0 0 0
0 0 0
-0.00018125 -0.000227922 0.000403751
-0.000329951 -0.000249702 0.000534847
-0.000156275 -0.000364081 0.000522593
-0.000295296 -0.000388844 0.00065342
0.000112373 1.8825e-05 7.45769e-05
0.000104872 5.38839e-05 7.17258e-05
8.80134e-05 1.14453e-05 5.94721e-05
7.93259e-05 3.26544e-05 5.40342e-05
0.000135035 1.51301e-05 7.40902e-05
0.000130954 6.97876e-05 0.000122166
9.32609e-05 1.68044e-05 6.22957e-05
8.85032e-05 5.31205e-05 0.000109412
0.000104872 5.38839e-05 7.17258e-05
0.000100943 9.26825e-05 0.000115159
7.93259e-05 3.26544e-05 5.40342e-05
7.34962e-05 5.75654e-05 8.45116e-05
0.000130954 6.97876e-05 0.000122166
0.000118742 0.00012716 0.000202151
8.85032e-05 5.31205e-05 0.000109412
7.49804e-05 9.47879e-05 0.000180544
0.000100943 9.26825e-05 0.000115159
9.32046e-05 0.00013405 0.000166767
7.34962e-05 5.75654e-05 8.45116e-05
6.47236e-05 8.39779e-05 0.000122244
0.000118742 0.00012716 0.000202151
9.978e-05 0.000186068 0.000293897
7.49804e-05 9.47879e-05 0.000180544
5.5243e-05 0.000138559 0.000262289
9.32046e-05 0.00013405 0.000166767
7.95552e-05 0.000176405 0.000220613
6.47236e-05 8.39779e-05 0.000122244
5.0835e-05 0.000110808 0.000162091
9.978e-05 0.000186068 0.000293897
7.18598e-05 0.000245263 0.000390114
5.5243e-05 0.000138559 0.000262289
2.73425e-05 0.000182727 0.000348453
7.95552e-05 0.000176405 0.000220613
5.91288e-05 0.0002186 0.000275337
5.0835e-05 0.000110808 0.000162091
3.07694e-05 0.000137328 0.00020304
7.18598e-05 0.000245263 0.000390114
3.28984e-05 0.000303558 0.000488938
2.73425e-05 0.000182727 0.000348453
-1.08491e-05 0.000226129 0.000437469
5.91288e-05 0.0002186 0.000275337
3.04644e-05 0.000259767 0.000330723
3.07694e-05 0.000137328 0.00020304
2.95105e-06 0.000162935 0.000245172
3.28984e-05 0.000303558 0.000488938
-1.95923e-05 0.000359762 0.000590634
-1.08491e-05 0.000226129 0.000437469
-6.19306e-05 0.000267763 0.000529754
3.04644e-05 0.000259767 0.000330723
-9.41044e-06 0.000298968 0.000387346
2.95105e-06 0.000162935 0.000245172
-3.56694e-05 0.000186996 0.000289372
-1.95923e-05 0.000359762 0.000590634
-8.92185e-05 0.000412528 0.000697129
-6.19306e-05 0.000267763 0.000529754
-0.000129743 0.00030663 0.000627305
-9.41044e-06 0.000298968 0.000387346
-6.68696e-05 0.000334832 0.000447817
-3.56694e-05 0.000186996 0.000289372
-9.17117e-05 0.000208763 0.000338582
-8.92185e-05 0.000412528 0.000697129
-0.000180861 0.000460246 0.000813097
-0.000129743 0.00030663 0.000627305
-0.000220007 0.000341856 0.000734738
-6.68696e-05 0.000334832 0.000447817
-0.000156275 0.000364081 0.000522593
-9.17117e-05 0.000208763 0.000338582
-0.00018125 0.000227922 0.000403751
-0.000180861 0.000460246 0.000813097
-0.000297496 0.000502281 0.000947252
-0.000220007 0.000341856 0.000734738
-0.00033869 0.000374072 0.000860997
-0.000156275 0.000364081 0.000522593
-0.000295296 0.000388844 0.00065342
-0.00018125 0.000227922 0.000403751
-0.000329951 0.000249702 0.000534847
-0.000297496 0.000502281 0.000947252
-0.000426871 0.000546776 0.00109486
-0.00033869 0.000374072 0.000860997
-0.000478808 0.000411646 0.00100712
8.80134e-05 1.14453e-05 5.94721e-05