# vtk DataFile Version 3.0
#This file was generated by the deal.II library on 2018/12/3 at 16:29:04
ASCII
DATASET UNSTRUCTURED_GRID

POINTS 8000 double
0 0 0
0.1 0 0
0 0.1 0
0.1 0.1 0
0 0 0.1
0.1 0 0.1
0 0.1 0.1
0.1 0.1 0.1
0.1 0 0
0.2 0 0
0.1 0.1 0
0.2 0.1 0
0.1 0 0.1
0.2 0 0.1
0.1 0.1 0.1
0.2 0.1 0.1
0.2 0 0
0.3 0 0
0.2 0.1 0
0.3 0.1 0
0.2 0 0.1
0.3 0 0.1
0.2 0.1 0.1
0.3 0.1 0.1
0.3 0 0
0.4 0 0
0.3 0.1 0
0.4 0.1 0
0.3 0 0.1
0.4 0 0.1
0.3 0.1 0.1
0.4 0.1 0.1
0.4 0 0
0.5 0 0
0.4 0.1 0
0.5 0.1 0
0.4 0 0.1
0.5 0 0.1
0.4 0.1 0.1
0.5 0.1 0.1
0.5 0 0
0.6 0 0
0.5 0.1 0
0.6 0.1 0
0.5 0 0.1
0.6 0 0.1
0.5 0.1 0.1
0.6 0.1 0.1
0.6 0 0
0.7 0 0
0.6 0.1 0
0.7 0.1 0
0.6 0 0.1
0.7 0 0.1
0.6 0.1 0.1
0.7 0.1 0.1
0.7 0 0
0.8 0 0
0.7 0.1 0
0.8 0.1 0
0.7 0 0.1
0.8 0 0.1
0.7 0.1 0.1
0.8 0.1 0.1
0.8 0 0
0.9 0 0
0.8 0.1 0
0.9 0.1 0
0.8 0 0.1
0.9 0 0.1
0.8 0.1 0.1
0.9 0.1 0.1
0.9 0 0
1 0 0
0.9 0.1 0
1 0.1 0
0.9 0 0.1
1 0 0.1
0.9 0.1 0.1
1 0.1 0.1
0 0.1 0
0.1 0.1 0
0 0.2 0
0.1 0.2 0
0 0.1 0.1
0.1 0.1 0.1
0 0.2 0.1
0.1 0.2 0.1
0.1 0.1 0
0.2 0.1 0
0.1 0.2 0
0.2 0.2 0
0.1 0.1 0.1
0.2 0.1 0.1
0.1 0.2 0.1
0.2 0.2 0.1
0.2 0.1 0
0.3 0.1 0
0.2 0.2 0
0.3 0.2 0
0.2 0.1 0.1
0.3 0.1 0.1
0.2 0.2 0.1
0.3 0.2 0.1
0.3 0.1 0
0.4 0.1 0
0.3 0.2 0
0.4 0.2 0
0.3 0.1 0.1
0.4 0.1 0.1
0.3 0.2 0.1
0.4 0.2 0.1
0.4 0.1 0
0.5 0.1 0
0.4 0.2 0
0.5 0.2 0
0.4 0.1 0.1
0.5 0.1 0.1
0.4 0.2 0.1
0.5 0.2 0.1
0.5 0.1 0
0.6 0.1 0
0.5 0.2 0
0.6 0.2 0
0.5 0.1 0.1
0.6 0.1 0.1
0.5 0.2 0.1
0.6 0.2 0.1
0.6 0.1 0
0.7 0.1 0
0.6 0.2 0
0.7 0.2 0
0.6 0.1 0.1
0.7 0.1 0.1
0.6 0.2 0.1
0.7 0.2 0.1
0.7 0.1 0
0.8 0.1 0
0.7 0.2 0
0.8 0.2 0
0.7 0.1 0.1
0.8 0.1 0.1
0.7 0.2 0.1
0.8 0.2 0.1
0.8 0.1 0
0.9 0.1 0
0.8 0.2 0
0.9 0.2 0
0.8 0.1 0.1
0.9 0.1 0.1
0.8 0.2 0.1
0.9 0.2 0.1
0.9 0.1 0
1 0.1 0
0.9 0.2 0
1 0.2 0
0.9 0.1 0.1
1 0.1 0.1
0.9 0.2 0.1
1 0.2 0.1
0 0.2 0
0.1 0.2 0
0 0.3 0
0.1 0.3 0
0 0.2 0.1
0.1 0.2 0.1
0 0.3 0.1
0.1 0.3 0.1
0.1 0.2 0
0.2 0.2 0
0.1 0.3 0
0.2 0.3 0
0.1 0.2 0.1
0.2 0.2 0.1
0.1 0.3 0.1
0.2 0.3 0.1
0.2 0.2 0
0.3 0.2 0
0.2 0.3 0
0.3 0.3 0
0.2 0.2 0.1
0.3 0.2 0.1
0.2 0.3 0.1
0.3 0.3 0.1
0.3 0.2 0
0.4 0.2 0
0.3 0.3 0
0.4 0.3 0
0.3 0.2 0.1
0.4 0.2 0.1
0.3 0.3 0.1
0.4 0.3 0.1
0.4 0.2 0
0.5 0.2 0
0.4 0.3 0
0.5 0.3 0
0.4 0.2 0.1
0.5 0.2 0.1
0.4 0.3 0.1
0.5 0.3 0.1
0.5 0.2 0
0.6 0.2 0
0.5 0.3 0
0.6 0.3 0
0.5 0.2 0.1
0.6 0.2 0.1
0.5 0.3 0.1
0.6 0.3 0.1
0.6 0.2 0
0.7 0.2 0
0.6 0.3 0
0.7 0.3 0
0.6 0.2 0.1
0.7 0.2 0.1
0.6 0.3 0.1
0.7 0.3 0.1
0.7 0.2 0
0.8 0.2 0
0.7 0.3 0
0.8 0.3 0
0.7 0.2 0.1
0.8 0.2 0.1
0.7 0.3 0.1
0.8 0.3 0.1
0.8 0.2 0
0.9 0.2 0
0.8 0.3 0
0.9 0.3 0
0.8 0.2 0.1
0.9 0.2 0.1
0.8 0.3 0.1
0.9 0.3 0.1
0.9 0.2 0
1 0.2 0
0.9 0.3 0
1 0.3 0
0.9 0.2 0.1
1 0.2 0.1
0.9 0.3 0.1
1 0.3 0.1
0 0.3 0
0.1 0.3 0
0 0.4 0
0.1 0.4 0
0 0.3 0.1
0.1 0.3 0.1
0 0.4 0.1
0.1 0.4 0.1
0.1 0.3 0
0.2 0.3 0
0.1 0.4 0
0.2 0.4 0
0.1 0.3 0.1
0.2 0.3 0.1
0.1 0.4 0.1
0.2 0.4 0.1
0.2 0.3 0
0.3 0.3 0
0.2 0.4 0
0.3 0.4 0
0.2 0.3 0.1
0.3 0.3 0.1
0.2 0.4 0.1
0.3 0.4 0.1
0.3 0.3 0
0.4 0.3 0
0.3 0.4 0
0.4 0.4 0
0.3 0.3 0.1
0.4 0.3 0.1
0.3 0.4 0.1
0.4 0.4 0.1
0.4 0.3 0
0.5 0.3 0
0.4 0.4 0
0.5 0.4 0
0.4 0.3 0.1
0.5 0.3 0.1
0.4 0.4 0.1
0.5 0.4 0.1
0.5 0.3 0
0.6 0.3 0
0.5 0.4 0
0.6 0.4 0
0.5 0.3 0.1
0.6 0.3 0.1
0.5 0.4 0.1
0.6 0.4 0.1
0.6 0.3 0
0.7 0.3 0
0.6 0.4 0
0.7 0.4 0
0.6 0.3 0.1
0.7 0.3 0.1
0.6 0.4 0.1
0.7 0.4 0.1
0.7 0.3 0
0.8 0.3 0
0.7 0.4 0
0.8 0.4 0
0.7 0.3 0.1
0.8 0.3 0.1
0.7 0.4 0.1
0.8 0.4 0.1
0.8 0.3 0
0.9 0.3 0
0.8 0.4 0
0.9 0.4 0
0.8 0.3 0.1
0.9 0.3 0.1
0.8 0.4 0.1
0.9 0.4 0.1
0.9 0.3 0
1 0.3 0
0.9 0.4 0
1 0.4 0
0.9 0.3 0.1
1 0.3 0.1
0.9 0.4 0.1
1 0.4 0.1
0 0.4 0
0.1 0.4 0
0 0.5 0
0.1 0.5 0
0 0.4 0.1
0.1 0.4 0.1
0 0.5 0.1
0.1 0.5 0.1
0.1 0.4 0
0.2 0.4 0
0.1 0.5 0
0.2 0.5 0
0.1 0.4 0.1
0.2 0.4 0.1
0.1 0.5 0.1
0.2 0.5 0.1
0.2 0.4 0
0.3 0.4 0
0.2 0.5 0
0.3 0.5 0
0.2 0.4 0.1
0.3 0.4 0.1
0.2 0.5 0.1
0.3 0.5 0.1
0.3 0.4 0
0.4 0.4 0
0.3 0.5 0
0.4 0.5 0
0.3 0.4 0.1
0.4 0.4 0.1
0.3 0.5 0.1
0.4 0.5 0.1
0.4 0.4 0
0.5 0.4 0
0.4 0.5 0
0.5 0.5 0
0.4 0.4 0.1
0.5 0.4 0.1
0.4 0.5 0.1
0.5 0.5 0.1
0.5 0.4 0
0.6 0.4 0
0.5 0.5 0
0.6 0.5 0
0.5 0.4 0.1
0.6 0.4 0.1
0.5 0.5 0.1
0.6 0.5 0.1
0.6 0.4 0
0.7 0.4 0
0.6 0.5 0
0.7 0.5 0
0.6 0.4 0.1
0.7 0.4 0.1
0.6 0.5 0.1
0.7 0.5 0.1
0.7 0.4 0
0.8 0.4 0
0.7 0.5 0
0.8 0.5 0
0.7 0.4 0.1
0.8 0.4 0.1
0.7 0.5 0.1
0.8 0.5 0.1
0.8 0.4 0
0.9 0.4 0
0.8 0.5 0
0.9 0.5 0
0.8 0.4 0.1
0.9 0.4 0.1
0.8 0.5 0.1
0.9 0.5 0.1
0.9 0.4 0
1 0.4 0
0.9 0.5 0
1 0.5 0
0.9 0.4 0.1
1 0.4 0.1
0.9 0.5 0.1
1 0.5 0.1
0 0.5 0
0.1 0.5 0
0 0.6 0
0.1 0.6 0
0 0.5 0.1
0.1 0.5 0.1
0 0.6 0.1
0.1 0.6 0.1
0.1 0.5 0
0.2 0.5 0
0.1 0.6 0
0.2 0.6 0
0.1 0.5 0.1
0.2 0.5 0.1
0.1 0.6 0.1
0.2 0.6 0.1
0.2 0.5 0
0.3 0.5 0
0.2 0.6 0
0.3 0.6 0
0.2 0.5 0.1
0.3 0.5 0.1
0.2 0.6 0.1
0.3 0.6 0.1
0.3 0.5 0
0.4 0.5 0
0.3 0.6 0
0.4 0.6 0
0.3 0.5 0.1
0.4 0.5 0.1
0.3 0.6 0.1
0.4 0.6 0.1
0.4 0.5 0
0.5 0.5 0
0.4 0.6 0
0.5 0.6 0
0.4 0.5 0.1
0.5 0.5 0.1
0.4 0.6 0.1
0.5 0.6 0.1
0.5 0.5 0
0.6 0.5 0
0.5 0.6 0
0.6 0.6 0
0.5 0.5 0.1
0.6 0.5 0.1
0.5 0.6 0.1
0.6 0.6 0.1
0.6 0.5 0
0.7 0.5 0
0.6 0.6 0
0.7 0.6 0
0.6 0.5 0.1
0.7 0.5 0.1
0.6 0.6 0.1
0.7 0.6 0.1
0.7 0.5 0
0.8 0.5 0
0.7 0.6 0
0.8 0.6 0
0.7 0.5 0.1
0.8 0.5 0.1
0.7 0.6 0.1
0.8 0.6 0.1
0.8 0.5 0
0.9 0.5 0
0.8 0.6 0
0.9 0.6 0
0.8 0.5 0.1
0.9 0.5 0.1
0.8 0.6 0.1
0.9 0.6 0.1
0.9 0.5 0
1 0.5 0
0.9 0.6 0
1 0.6 0
0.9 0.5 0.1
1 0.5 0.1
0.9 0.6 0.1
1 0.6 0.1
0 0.6 0
0.1 0.6 0
0 0.7 0
0.1 0.7 0
0 0.6 0.1
0.1 0.6 0.1
0 0.7 0.1
0.1 0.7 0.1
0.1 0.6 0
0.2 0.6 0
0.1 0.7 0
0.2 0.7 0
0.1 0.6 0.1
0.2 0.6 0.1
0.1 0.7 0.1
0.2 0.7 0.1
0.2 0.6 0
0.3 0.6 0
0.2 0.7 0
0.3 0.7 0
0.2 0.6 0.1
0.3 0.6 0.1
0.2 0.7 0.1
0.3 0.7 0.1
0.3 0.6 0
0.4 0.6 0
0.3 0.7 0
0.4 0.7 0
0.3 0.6 0.1
0.4 0.6 0.1
0.3 0.7 0.1
0.4 0.7 0.1
0.4 0.6 0
0.5 0.6 0
0.4 0.7 0
0.5 0.7 0
0.4 0.6 0.1
0.5 0.6 0.1
0.4 0.7 0.1
0.5 0.7 0.1
0.5 0.6 0
0.6 0.6 0
0.5 0.7 0
0.6 0.7 0
0.5 0.6 0.1
0.6 0.6 0.1
0.5 0.7 0.1
0.6 0.7 0.1
0.6 0.6 0
0.7 0.6 0
0.6 0.7 0
0.7 0.7 0
0.6 0.6 0.1
0.7 0.6 0.1
0.6 0.7 0.1
0.7 0.7 0.1
0.7 0.6 0
0.8 0.6 0
0.7 0.7 0
0.8 0.7 0
0.7 0.6 0.1
0.8 0.6 0.1
0.7 0.7 0.1
0.8 0.7 0.1
0.8 0.6 0
0.9 0.6 0
0.8 0.7 0
0.9 0.7 0
0.8 0.6 0.1
0.9 0.6 0.1
0.8 0.7 0.1
0.9 0.7 0.1
0.9 0.6 0
1 0.6 0
0.9 0.7 0
1 0.7 0
0.9 0.6 0.1
1 0.6 0.1
0.9 0.7 0.1
1 0.7 0.1
0 0.7 0
0.1 0.7 0
0 0.8 0
0.1 0.8 0
0 0.7 0.1
0.1 0.7 0.1
0 0.8 0.1
0.1 0.8 0.1
0.1 0.7 0
0.2 0.7 0
0.1 0.8 0
0.2 0.8 0
0.1 0.7 0.1
0.2 0.7 0.1
0.1 0.8 0.1
0.2 0.8 0.1
0.2 0.7 0
0.3 0.7 0
0.2 0.8 0
0.3 0.8 0
0.2 0.7 0.1
0.3 0.7 0.1
0.2 0.8 0.1
0.3 0.8 0.1
0.3 0.7 0
0.4 0.7 0
0.3 0.8 0
0.4 0.8 0
0.3 0.7 0.1
0.4 0.7 0.1
0.3 0.8 0.1
0.4 0.8 0.1
0.4 0.7 0
0.5 0.7 0
0.4 0.8 0
0.5 0.8 0
0.4 0.7 0.1
0.5 0.7 0.1
0.4 0.8 0.1
0.5 0.8 0.1
0.5 0.7 0
0.6 0.7 0
0.5 0.8 0
0.6 0.8 0
0.5 0.7 0.1
0.6 0.7 0.1
0.5 0.8 0.1
0.6 0.8 0.1
0.6 0.7 0
0.7 0.7 0
0.6 0.8 0
0.7 0.8 0
0.6 0.7 0.1
0.7 0.7 0.1
0.6 0.8 0.1
0.7 0.8 0.1
0.7 0.7 0
0.8 0.7 0
0.7 0.8 0
0.8 0.8 0
0.7 0.7 0.1
0.8 0.7 0.1
0.7 0.8 0.1
0.8 0.8 0.1
0.8 0.7 0
0.9 0.7 0
0.8 0.8 0
0.9 0.8 0
0.8 0.7 0.1
0.9 0.7 0.1
0.8 0.8 0.1
0.9 0.8 0.1
0.9 0.7 0
1 0.7 0
0.9 0.8 0
1 0.8 0
0.9 0.7 0.1
1 0.7 0.1
0.9 0.8 0.1
1 0.8 0.1
0 0.8 0
0.1 0.8 0
0 0.9 0
0.1 0.9 0
0 0.8 0.1
0.1 0.8 0.1
0 0.9 0.1
0.1 0.9 0.1
0.1 0.8 0
0.2 0.8 0
0.1 0.9 0
0.2 0.9 0
0.1 0.8 0.1
0.2 0.8 0.1
0.1 0.9 0.1
0.2 0.9 0.1
0.2 0.8 0
0.3 0.8 0
0.2 0.9 0
0.3 0.9 0
0.2 0.8 0.1
0.3 0.8 0.1
0.2 0.9 0.1
0.3 0.9 0.1
0.3 0.8 0
0.4 0.8 0
0.3 0.9 0
0.4 0.9 0
0.3 0.8 0.1
0.4 0.8 0.1
0.3 0.9 0.1
0.4 0.9 0.1
0.4 0.8 0
0.5 0.8 0
0.4 0.9 0
0.5 0.9 0
0.4 0.8 0.1
0.5 0.8 0.1
0.4 0.9 0.1
0.5 0.9 0.1
0.5 0.8 0
0.6 0.8 0
0.5 0.9 0
0.6 0.9 0
0.5 0.8 0.1
0.6 0.8 0.1
0.5 0.9 0.1
0.6 0.9 0.1
0.6 0.8 0
0.7 0.8 0
0.6 0.9 0
0.7 0.9 0
0.6 0.8 0.1
0.7 0.8 0.1
0.6 0.9 0.1
0.7 0.9 0.1
0.7 0.8 0
0.8 0.8 0
0.7 0.9 0
0.8 0.9 0
0.7 0.8 0.1
0.8 0.8 0.1
0.7 0.9 0.1
0.8 0.9 0.1
0.8 0.8 0
0.9 0.8 0
0.8 0.9 0
0.9 0.9 0
0.8 0.8 0.1
0.9 0.8 0.1
0.8 0.9 0.1
0.9 0.9 0.1
0.9 0.8 0
1 0.8 0
0.9 0.9 0
1 0.9 0
0.9 0.8 0.1
1 0.8 0.1
0.9 0.9 0.1
1 0.9 0.1
0 0.9 0
0.1 0.9 0
0 1 0
0.1 1 0
0 0.9 0.1
0.1 0.9 0.1
0 1 0.1
0.1 1 0.1
0.1 0.9 0
0.2 0.9 0
0.1 1 0
0.2 1 0
0.1 0.9 0.1
0.2 0.9 0.1
0.1 1 0.1
0.2 1 0.1
0.2 0.9 0
0.3 0.9 0
0.2 1 0
0.3 1 0
0.2 0.9 0.1
0.3 0.9 0.1
0.2 1 0.1
0.3 1 0.1
0.3 0.9 0
0.4 0.9 0
0.3 1 0
0.4 1 0
0.3 0.9 0.1
0.4 0.9 0.1
0.3 1 0.1
0.4 1 0.1
0.4 0.9 0
0.5 0.9 0
0.4 1 0
0.5 1 0
0.4 0.9 0.1
0.5 0.9 0.1
0.4 1 0.1
0.5 1 0.1
0.5 0.9 0
0.6 0.9 0
0.5 1 0
0.6 1 0
0.5 0.9 0.1
0.6 0.9 0.1
0.5 1 0.1
0.6 1 0.1
0.6 0.9 0
0.7 0.9 0
0.6 1 0
0.7 1 0
0.6 0.9 0.1
0.7 0.9 0.1
0.6 1 0.1
0.7 1 0.1
0.7 0.9 0
0.8 0.9 0
0.7 1 0
0.8 1 0
0.7 0.9 0.1
0.8 0.9 0.1
0.7 1 0.1
0.8 1 0.1
0.8 0.9 0
0.9 0.9 0
0.8 1 0
0.9 1 0
0.8 0.9 0.1
0.9 0.9 0.1
0.8 1 0.1
0.9 1 0.1
0.9 0.9 0
1 0.9 0
0.9 1 0
1 1 0
0.9 0.9 0.1
1 0.9 0.1
0.9 1 0.1
1 1 0.1
0 0 0.1
0.1 0 0.1
0 0.1 0.1
0.1 0.1 0.1
0 0 0.2
0.1 0 0.2
0 0.1 0.2
0.1 0.1 0.2
0.1 0 0.1
0.2 0 0.1
0.1 0.1 0.1
0.2 0.1 0.1
0.1 0 0.2
0.2 0 0.2
0.1 0.1 0.2
0.2 0.1 0.2
0.2 0 0.1
0.3 0 0.1
0.2 0.1 0.1
0.3 0.1 0.1
0.2 0 0.2
0.3 0 0.2
0.2 0.1 0.2
0.3 0.1 0.2
0.3 0 0.1
0.4 0 0.1
0.3 0.1 0.1
0.4 0.1 0.1
0.3 0 0.2
0.4 0 0.2
0.3 0.1 0.2
0.4 0.1 0.2
0.4 0 0.1
0.5 0 0.1
0.4 0.1 0.1
0.5 0.1 0.1
0.4 0 0.2
0.5 0 0.2
0.4 0.1 0.2
0.5 0.1 0.2
0.5 0 0.1
0.6 0 0.1
0.5 0.1 0.1
0.6 0.1 0.1
0.5 0 0.2
0.6 0 0.2
0.5 0.1 0.2
0.6 0.1 0.2
0.6 0 0.1
0.7 0 0.1
0.6 0.1 0.1
0.7 0.1 0.1
0.6 0 0.2
0.7 0 0.2
0.6 0.1 0.2
0.7 0.1 0.2
0.7 0 0.1
0.8 0 0.1
0.7 0.1 0.1
0.8 0.1 0.1
0.7 0 0.2
0.8 0 0.2
0.7 0.1 0.2
0.8 0.1 0.2
0.8 0 0.1
0.9 0 0.1
0.8 0.1 0.1
0.9 0.1 0.1
0.8 0 0.2
0.9 0 0.2
0.8 0.1 0.2
0.9 0.1 0.2
0.9 0 0.1
1 0 0.1
0.9 0.1 0.1
1 0.1 0.1
0.9 0 0.2
1 0 0.2
0.9 0.1 0.2
1 0.1 0.2
0 0.1 0.1
0.1 0.1 0.1
0 0.2 0.1
0.1 0.2 0.1
0 0.1 0.2
0.1 0.1 0.2
0 0.2 0.2
0.1 0.2 0.2
0.1 0.1 0.1
0.2 0.1 0.1
0.1 0.2 0.1
0.2 0.2 0.1
0.1 0.1 0.2
0.2 0.1 0.2
0.1 0.2 0.2
0.2 0.2 0.2
0.2 0.1 0.1
0.3 0.1 0.1
0.2 0.2 0.1
0.3 0.2 0.1
0.2 0.1 0.2
0.3 0.1 0.2
0.2 0.2 0.2
0.3 0.2 0.2
0.3 0.1 0.1
0.4 0.1 0.1
0.3 0.2 0.1
0.4 0.2 0.1
0.3 0.1 0.2
0.4 0.1 0.2
0.3 0.2 0.2
0.4 0.2 0.2
0.4 0.1 0.1
0.5 0.1 0.1
0.4 0.2 0.1
0.5 0.2 0.1
0.4 0.1 0.2
0.5 0.1 0.2
0.4 0.2 0.2
0.5 0.2 0.2
0.5 0.1 0.1
0.6 0.1 0.1
[...]
POINT_DATA 8000
VECTORS u double
0 0 0
1.63985e-05 0.00384459 -0.00386628
0 0 0
-0.00212909 0.00408055 -0.00344399
0 0 0
0.00216846 0.00342214 -0.00412299
0 0 0
2.41499e-05 0.00335892 -0.00339973
1.63985e-05 0.00384459 -0.00386628
6.51043e-05 0.00917118 -0.00922081
-0.00212909 0.00408055 -0.00344399
-0.00276923 0.00924224 -0.00752001
0.00216846 0.00342214 -0.00412299
0.00289315 0.0074675 -0.0093272
2.41499e-05 0.00335892 -0.00339973
6.06271e-05 0.00745992 -0.00754217
6.51043e-05 0.00917118 -0.00922081
0.000148009 0.0145929 -0.0146573
-0.00276923 0.00924224 -0.00752001
-0.00292207 0.0145981 -0.0117849
0.00289315 0.0074675 -0.0093272
0.00318119 0.0117146 -0.0147178
6.06271e-05 0.00745992 -0.00754217
0.000113855 0.011705 -0.0118205
0.000148009 0.0145929 -0.0146573
0.000277882 0.0199795 -0.0200317
-0.00292207 0.0145981 -0.0117849
-0.00288474 0.0199493 -0.0160513
0.00318119 0.0117146 -0.0147178
0.0033499 0.0159883 -0.0200857
0.000113855 0.011705 -0.0118205
0.000191504 0.0159652 -0.0160949
0.000277882 0.0199795 -0.0200317
0.000475357 0.0253367 -0.025325
-0.00288474 0.0199493 -0.0160513
-0.00274741 0.0252789 -0.0202724
0.0033499 0.0159883 -0.0200857
0.00351789 0.0202647 -0.0253916
0.000191504 0.0159652 -0.0160949
0.00030143 0.0202236 -0.0203267
0.000475357 0.0253367 -0.025325
0.000767026 0.0307022 -0.0305309
-0.00274741 0.0252789 -0.0202724
-0.00253179 0.0306162 -0.0244273
0.00351789 0.0202647 -0.0253916
0.00373934 0.0245644 -0.0306222
0.00030143 0.0202236 -0.0203267
0.000449373 0.0245035 -0.024496
0.000767026 0.0307022 -0.0305309
0.00118318 0.0361291 -0.0356267
-0.00253179 0.0306162 -0.0244273
-0.00224068 0.0360137 -0.0284893
0.00373934 0.0245644 -0.0306222
0.00404547 0.0289331 -0.0357512
0.000449373 0.0245035 -0.024496
0.000632818 0.0288524 -0.0285731
0.00118318 0.0361291 -0.0356267
0.00175415 0.0416996 -0.0405599
-0.00224068 0.0360137 -0.0284893
-0.00188552 0.0415595 -0.0324118
0.00404547 0.0289331 -0.0357512
0.00445704 0.0334503 -0.0407226
0.000632818 0.0288524 -0.0285731
0.000827532 0.0333548 -0.0325006
0.00175415 0.0416996 -0.0405599
0.00250769 0.0475934 -0.0452581
-0.00188552 0.0415595 -0.0324118
-0.00151295 0.0474306 -0.0361236
0.00445704 0.0334503 -0.0407226
0.00499962 0.0382904 -0.0454282
0.000827532 0.0333548 -0.0325006
0.000966832 0.0381892 -0.0361708
0.00250769 0.0475934 -0.0452581
0.00350515 0.0550033 -0.0495252
-0.00151295 0.0474306 -0.0361236
-0.00103671 0.0544555 -0.0390723
0.00499962 0.0382904 -0.0454282
0.00577377 0.0445504 -0.050073
0.000966832 0.0381892 -0.0361708
0.00113559 0.0440026 -0.0396201
0 0 0
-0.00212909 0.00408055 -0.00344399
0 0 0
-0.00213799 0.00456243 -0.00276722
0 0 0
2.41499e-05 0.00335892 -0.00339973
0 0 0
-0.000465721 0.00366382 -0.00257826
-0.00212909 0.00408055 -0.00344399
-0.00276923 0.00924224 -0.00752001
-0.00213799 0.00456243 -0.00276722
-0.00308008 0.00953264 -0.00574924
2.41499e-05 0.00335892 -0.00339973
6.06271e-05 0.00745992 -0.00754217
-0.000465721 0.00366382 -0.00257826
-0.000874208 0.0076554 -0.0056969
-0.00276923 0.00924224 -0.00752001
-0.00292207 0.0145981 -0.0117849
-0.00308008 0.00953264 -0.00574924
-0.0034766 0.0147333 -0.00890056
6.06271e-05 0.00745992 -0.00754217
0.000113855 0.011705 -0.0118205
-0.000874208 0.0076554 -0.0056969
-0.00107911 0.0118053 -0.00890338
-0.00292207 0.0145981 -0.0117849
-0.00288474 0.0199493 -0.0160513
-0.0034766 0.0147333 -0.00890056
-0.00359277 0.0199987 -0.0120812
0.000113855 0.011705 -0.0118205
0.000191504 0.0159652 -0.0160949
-0.00107911 0.0118053 -0.00890338
-0.00114681 0.0160074 -0.0121082
-0.00288474 0.0199493 -0.0160513
-0.00274741 0.0252789 -0.0202724
-0.00359277 0.0199987 -0.0120812
-0.00356371 0.0252821 -0.0152416
0.000191504 0.0159652 -0.0160949
0.00030143 0.0202236 -0.0203267
-0.00114681 0.0160074 -0.0121082
-0.00113581 0.0202326 -0.0152823
-0.00274741 0.0252789 -0.0202724
-0.00253179 0.0306162 -0.0244273
-0.00356371 0.0252821 -0.0152416
-0.00344746 0.0305931 -0.0183548
0.00030143 0.0202236 -0.0203267
0.000449373 0.0245035 -0.024496
-0.00113581 0.0202326 -0.0152823
-0.00108049 0.0244926 -0.0184059
-0.00253179 0.0306162 -0.0244273
-0.00224068 0.0360137 -0.0284893
-0.00344746 0.0305931 -0.0183548
-0.00326569 0.0359741 -0.02139
0.000449373 0.0245035 -0.024496
0.000632818 0.0288524 -0.0285731
-0.00108049 0.0244926 -0.0184059
-0.00100449 0.0288268 -0.0214464
-0.00224068 0.0360137 -0.0284893
-0.00188552 0.0415595 -0.0324118
-0.00326569 0.0359741 -0.02139
-0.00302174 0.0415001 -0.0242926
0.000632818 0.0288524 -0.0285731
0.000827532 0.0333548 -0.0325006
-0.00100449 0.0288268 -0.0214464
-0.000932498 0.033304 -0.02434
-0.00188552 0.0415595 -0.0324118
-0.00151295 0.0474306 -0.0361236
-0.00302174 0.0415001 -0.0242926
-0.00268313 0.0472596 -0.0269483
0.000827532 0.0333548 -0.0325006
0.000966832 0.0381892 -0.0361708
-0.000932498 0.033304 -0.02434
-0.0008745 0.038019 -0.0269507
-0.00151295 0.0474306 -0.0361236
-0.00103671 0.0544555 -0.0390723
-0.00268313 0.0472596 -0.0269483
-0.00208583 0.0539077 -0.0286195
0.000966832 0.0381892 -0.0361708
0.00113559 0.0440026 -0.0396201
-0.0008745 0.038019 -0.0269507
-0.00069187 0.0434548 -0.0291673
0 0 0
-0.00213799 0.00456243 -0.00276722
0 0 0
-0.00160088 0.00495662 -0.00192675
0 0 0
-0.000465721 0.00366382 -0.00257826
0 0 0
-0.000465804 0.00396339 -0.00173808
-0.00213799 0.00456243 -0.00276722
-0.00308008 0.00953264 -0.00574924
-0.00160088 0.00495662 -0.00192675
-0.00240275 0.00987569 -0.00389956
-0.000465721 0.00366382 -0.00257826
-0.000874208 0.0076554 -0.0056969
-0.000465804 0.00396339 -0.00173808
-0.000913115 0.00792421 -0.00382814
-0.00308008 0.00953264 -0.00574924
-0.0034766 0.0147333 -0.00890056
-0.00240275 0.00987569 -0.00389956
-0.0028168 0.0149464 -0.00598661
-0.000874208 0.0076554 -0.0056969
-0.00107911 0.0118053 -0.00890338
-0.000913115 0.00792421 -0.00382814
-0.00118908 0.0119789 -0.00597355
-0.0034766 0.0147333 -0.00890056
-0.00359277 0.0199987 -0.0120812
-0.0028168 0.0149464 -0.00598661
-0.0029922 0.020117 -0.00810359
-0.00107911 0.0118053 -0.00890338
-0.00114681 0.0160074 -0.0121082
-0.00118908 0.0119789 -0.00597355
-0.00132668 0.0161081 -0.00811861
-0.00359277 0.0199987 -0.0120812
-0.00356371 0.0252821 -0.0152416
-0.0029922 0.020117 -0.00810359
-0.00302824 0.0253454 -0.0102118
-0.00114681 0.0160074 -0.0121082
-0.00113581 0.0202326 -0.0152823
-0.00132668 0.0161081 -0.00811861
-0.00137969 0.0202885 -0.0102414
-0.00356371 0.0252821 -0.0152416
-0.00344746 0.0305931 -0.0183548
-0.00302824 0.0253454 -0.0102118
-0.00297515 0.0306237 -0.0122836
-0.00113581 0.0202326 -0.0152823
-0.00108049 0.0244926 -0.0184059
-0.00137969 0.0202885 -0.0102414
-0.00138578 0.0245185 -0.0123217
-0.00344746 0.0305931 -0.0183548
-0.00326569 0.0359741 -0.02139
-0.00297515 0.0306237 -0.0122836
-0.00284565 0.0359724 -0.0142824
-0.00108049 0.0244926 -0.0184059
-0.00100449 0.0288268 -0.0214464
-0.00138578 0.0245185 -0.0123217
-0.00136595 0.0288178 -0.0143224
-0.00326569 0.0359741 -0.02139
-0.00302174 0.0415001 -0.0242926
-0.00284565 0.0359724 -0.0142824
-0.00261894 0.0414284 -0.0161387
-0.00100449 0.0288268 -0.0214464
-0.000932498 0.033304 -0.02434
-0.00136595 0.0288178 -0.0143224
-0.00132938 0.0332193 -0.0161681
-0.00302174 0.0415001 -0.0242926
-0.00268313 0.0472596 -0.0269483
-0.00261894 0.0414284 -0.0161387
-0.00223367 0.0469968 -0.0177026
-0.000932498 0.033304 -0.02434
-0.0008745 0.038019 -0.0269507
-0.00132938 0.0332193 -0.0161681
-0.00126562 0.0377477 -0.0176984
-0.00268313 0.0472596 -0.0269483
-0.00208583 0.0539077 -0.0286195
-0.00223367 0.0469968 -0.0177026
-0.00157167 0.0533599 -0.0181666
-0.0008745 0.038019 -0.0269507
-0.00069187 0.0434548 -0.0291673
-0.00126562 0.0377477 -0.0176984
-0.00107448 0.042907 -0.0187145
0 0 0
-0.00160088 0.00495662 -0.00192675
0 0 0
-0.000850122 0.00520145 -0.000996218
0 0 0
-0.000465804 0.00396339 -0.00173808
0 0 0
-0.000272881 0.00416021 -0.000886818
-0.00160088 0.00495662 -0.00192675
-0.00240275 0.00987569 -0.00389956
-0.000850122 0.00520145 -0.000996218
-0.00129798 0.0101327 -0.00199089
-0.000465804 0.00396339 -0.00173808
-0.000913115 0.00792421 -0.00382814
-0.000272881 0.00416021 -0.000886818
-0.000546341 0.00813545 -0.00194716
-0.00240275 0.00987569 -0.00389956
-0.0028168 0.0149464 -0.00598661
-0.00129798 0.0101327 -0.00199089
-0.00155093 0.0151372 -0.00304146
-0.000913115 0.00792421 -0.00382814
-0.00118908 0.0119789 -0.00597355
-0.000546341 0.00813545 -0.00194716
-0.000732354 0.0121391 -0.00303441
-0.0028168 0.0149464 -0.00598661
-0.0029922 0.020117 -0.00810359
-0.00155093 0.0151372 -0.00304146
-0.0016712 0.0202448 -0.00410818
-0.00118908 0.0119789 -0.00597355
-0.00132668 0.0161081 -0.00811861
-0.000732354 0.0121391 -0.00303441
-0.000840265 0.0162167 -0.00412096
-0.0029922 0.020117 -0.00810359
-0.00302824 0.0253454 -0.0102118
-0.0016712 0.0202448 -0.00410818
-0.00170198 0.02543 -0.00516705
-0.00132668 0.0161081 -0.00811861
-0.00137969 0.0202885 -0.0102414
-0.000840265 0.0162167 -0.00412096
-0.000895969 0.0203589 -0.00519133
-0.00302824 0.0253454 -0.0102118
-0.00297515 0.0306237 -0.0122836
-0.00170198 0.02543 -0.00516705
-0.00166098 0.030673 -0.00619289
-0.00137969 0.0202885 -0.0102414
-0.00138578 0.0245185 -0.0123217
-0.000895969 0.0203589 -0.00519133
-0.00091785 0.0245536 -0.00622417
-0.00297515 0.0306237 -0.0122836
-0.00284565 0.0359724 -0.0142824
-0.00166098 0.030673 -0.00619289
-0.00153828 0.0359701 -0.00714468
-0.00138578 0.0245185 -0.0123217
-0.00136595 0.0288178 -0.0143224
-0.00091785 0.0245536 -0.00622417
-0.000911892 0.0287986 -0.00717766
-0.00284565 0.0359724 -0.0142824
-0.00261894 0.0414284 -0.0161387
-0.00153828 0.0359701 -0.00714468
-0.00129481 0.0413227 -0.00794181
-0.00136595 0.0288178 -0.0143224
-0.00132938 0.0332193 -0.0161681
-0.000911892 0.0287986 -0.00717766
-0.000875098 0.0330955 -0.00796671
-0.00261894 0.0414284 -0.0161387
-0.00223367 0.0469968 -0.0177026
-0.00129481 0.0413227 -0.00794181
-0.000866565 0.0466946 -0.0084143
-0.00132938 0.0332193 -0.0161681
-0.00126562 0.0377477 -0.0176984
-0.000875098 0.0330955 -0.00796671
-0.00079698 0.0374356 -0.0084148
-0.00223367 0.0469968 -0.0177026
-0.00157167 0.0533599 -0.0181666
-0.000866565 0.0466946 -0.0084143
-0.000166518 0.052812 -0.00771379
-0.00126562 0.0377477 -0.0176984
-0.00107448 0.042907 -0.0187145
-0.00079698 0.0374356 -0.0084148
-0.000603217 0.0423592 -0.0082616
0 0 0
-0.000850122 0.00520145 -0.000996218
0 0 0
-1.22673e-05 0.00529382 -2.43585e-05
0 0 0
-0.000272881 0.00416021 -0.000886818
0 0 0
-2.44045e-06 0.00423646 -2.8707e-05
-0.000850122 0.00520145 -0.000996218
-0.00129798 0.0101327 -0.00199089
-1.22673e-05 0.00529382 -2.43585e-05
-1.6622e-05 0.0102433 -4.94373e-05
-0.000272881 0.00416021 -0.000886818
-0.000546341 0.00813545 -0.00194716
-2.44045e-06 0.00423646 -2.8707e-05
-1.01842e-05 0.00822848 -5.79979e-05
-0.00129798 0.0101327 -0.00199089
-0.00155093 0.0151372 -0.00304146
-1.6622e-05 0.0102433 -4.94373e-05
-1.70864e-05 0.0152356 -7.35117e-05
-0.000546341 0.00813545 -0.00194716
-0.000732354 0.0121391 -0.00303441
-1.01842e-05 0.00822848 -5.79979e-05
-2.12013e-05 0.0122229 -8.6567e-05
-0.00155093 0.0151372 -0.00304146
-0.0016712 0.0202448 -0.00410818
-1.70864e-05 0.0152356 -7.35117e-05
-9.27707e-06 0.0203269 -9.36803e-05
-0.000732354 0.0121391 -0.00303441
-0.000840265 0.0162167 -0.00412096
-2.12013e-05 0.0122229 -8.6567e-05
-3.38895e-05 0.0162859 -0.00011207
-0.0016712 0.0202448 -0.00410818
-0.00170198 0.02543 -0.00516705
-9.27707e-06 0.0203269 -9.36803e-05
1.77511e-05 0.025496 -0.00010103
-0.000840265 0.0162167 -0.00412096
-0.000895969 0.0203589 -0.00519133
-3.38895e-05 0.0162859 -0.00011207
-4.49806e-05 0.0204113 -0.00012546
-0.00170198 0.02543 -0.00516705
-0.00166098 0.030673 -0.00619289
1.77511e-05 0.025496 -0.00010103
8.43096e-05 0.0307128 -7.48335e-05
-0.000895969 0.0203589 -0.00519133
-0.00091785 0.0245536 -0.00622417
-4.49806e-05 0.0204113 -0.00012546
-4.77617e-05 0.0245772 -0.000104947
-0.00166098 0.030673 -0.00619289
-0.00153828 0.0359701 -0.00714468
8.43096e-05 0.0307128 -7.48335e-05
0.000224436 0.0359537 2.75207e-05
-0.00091785 0.0245536 -0.00622417
-0.000911892 0.0287986 -0.00717766
-4.77617e-05 0.0245772 -0.000104947
-3.12451e-05 0.0287638 -5.27373e-06
-0.00153828 0.0359701 -0.00714468
-0.00129481 0.0413227 -0.00794181
0.000224436 0.0359537 2.75207e-05
0.000490487 0.0411958 0.000292575
-0.000911892 0.0287986 -0.00717766
-0.000875098 0.0330955 -0.00796671
-3.12451e-05 0.0287638 -5.27373e-06
1.61251e-05 0.0329511 0.000264708
-0.00129481 0.0413227 -0.00794181
-0.000866565 0.0466946 -0.0084143
0.000490487 0.0411958 0.000292575
0.000947684 0.0463858 0.000902033
-0.000875098 0.0330955 -0.00796671
-0.00079698 0.0374356 -0.0084148
1.61251e-05 0.0329511 0.000264708
0.00010329 0.0371167 0.000891925
-0.000866565 0.0466946 -0.0084143
-0.000166518 0.052812 -0.00771379
0.000947684 0.0463858 0.000902033
0.00167144 0.0522642 0.00273905
-0.00079698 0.0374356 -0.0084148
-0.000603217 0.0423592 -0.0082616
0.00010329 0.0371167 0.000891925
0.000295729 0.0418114 0.00219124
0 0 0
-1.22673e-05 0.00529382 -2.43585e-05
0 0 0
0.000832606 0.00523183 0.000951088
0 0 0
-2.44045e-06 0.00423646 -2.8707e-05
0 0 0
0.000273729 0.00418703 0.000831807
-1.22673e-05 0.00529382 -2.43585e-05
-1.6622e-05 0.0102433 -4.94373e-05
0.000832606 0.00523183 0.000951088
0.00128096 0.0101862 0.0018978
-2.44045e-06 0.00423646 -2.8707e-05
-1.01842e-05 0.00822848 -5.79979e-05
0.000273729 0.00418703 0.000831807
0.000540486 0.00818264 0.00183579
-1.6622e-05 0.0102433 -4.94373e-05
-1.70864e-05 0.0152356 -7.35117e-05
0.00128096 0.0101862 0.0018978
0.00154515 0.0152115 0.00290343
-1.01842e-05 0.00822848 -5.79979e-05
-2.12013e-05 0.0122229 -8.6567e-05
0.000540486 0.00818264 0.00183579
0.000715879 0.0122036 0.00286878
-1.70864e-05 0.0152356 -7.35117e-05
-9.27707e-06 0.0203269 -9.36803e-05
0.00154515 0.0152115 0.00290343
0.00169614 0.020335 0.00393459
-2.12013e-05 0.0122229 -8.6567e-05
-3.38895e-05 0.0162859 -0.00011207
0.000715879 0.0122036 0.00286878
0.000812645 0.0162921 0.00390843
-9.27707e-06 0.0203269 -9.36803e-05
1.77511e-05 0.025496 -0.00010103
0.00169614 0.020335 0.00393459
0.001798 0.0255212 0.00498513
-3.38895e-05 0.0162859 -0.00011207
-4.49806e-05 0.0204113 -0.00012546
0.000812645 0.0162921 0.00390843
0.000862562 0.0204287 0.00495744
1.77511e-05 0.025496 -0.00010103
8.43096e-05 0.0307128 -7.48335e-05
0.001798 0.0255212 0.00498513
0.00190582 0.03073 0.00607052
-4.49806e-05 0.0204113 -0.00012546
-4.77617e-05 0.0245772 -0.000104947
0.000862562 0.0204287 0.00495744
0.000894924 0.024582 0.00603734
8.43096e-05 0.0307128 -7.48335e-05
0.000224436 0.0359537 2.75207e-05
0.00190582 0.03073 0.00607052
0.002072 0.0359248 0.00723249
-4.77617e-05 0.0245772 -0.000104947
-3.12451e-05 0.0287638 -5.27373e-06
0.000894924 0.024582 0.00603734
0.000932953 0.0287196 0.00719469
0.000224436 0.0359537 2.75207e-05
0.000490487 0.0411958 0.000292575
0.002072 0.0359248 0.00723249
0.00235663 0.041066 0.00855899
-3.12451e-05 0.0287638 -5.27373e-06
1.61251e-05 0.0329511 0.000264708
0.000932953 0.0287196 0.00719469
0.000992047 0.0328068 0.00852291
0.000490487 0.0411958 0.000292575
0.000947684 0.0463858 0.000902033
0.00235663 0.041066 0.00855899
0.002829 0.046092 0.0102388
1.61251e-05 0.0329511 0.000264708
0.00010329 0.0371167 0.000891925
0.000992047 0.0328068 0.00852291
0.00108068 0.0368129 0.0102155
0.000947684 0.0463858 0.000902033
0.00167144 0.0522642 0.00273905
0.002829 0.046092 0.0102388
0.00356714 0.0517164 0.0131919
0.00010329 0.0371167 0.000891925
0.000295729 0.0418114 0.00219124
0.00108068 0.0368129 0.0102155
0.00126837 0.0412636 0.0126441
0 0 0
0.000832606 0.00523183 0.000951088
0 0 0
0.00160201 0.00500741 0.00189075
0 0 0
0.000273729 0.00418703 0.000831807
0 0 0
0.000481966 0.00400886 0.00168909
0.000832606 0.00523183 0.000951088
0.00128096 0.0101862 0.0018978
0.00160201 0.00500741 0.00189075
0.00242939 0.00996645 0.00382136
0.000273729 0.00418703 0.000831807
0.000540486 0.00818264 0.00183579
0.000481966 0.00400886 0.00168909
0.000946358 0.00800556 0.00372851
0.00128096 0.0101862 0.0018978
0.00154515 0.0152115 0.00290343
0.00242939 0.00996645 0.00382136
0.00288842 0.0150739 0.00587217
0.000540486 0.00818264 0.00183579
0.000715879 0.0122036 0.00286878
0.000946358 0.00800556 0.00372851
0.00124334 0.0120913 0.00582727
0.00154515 0.0152115 0.00290343
0.00169614 0.020335 0.00393459
0.00288842 0.0150739 0.00587217
0.00313793 0.0202727 0.00796677
0.000715879 0.0122036 0.00286878
0.000812645 0.0162921 0.00390843
0.00124334 0.0120913 0.00582727
0.00141063 0.0162405 0.0079366
0.00169614 0.020335 0.00393459
0.001798 0.0255212 0.00498513
0.00313793 0.0202727 0.00796677
0.00329654 0.0255035 0.0100848
0.000812645 0.0162921 0.00390843
0.000862562 0.0204287 0.00495744
0.00141063 0.0162405 0.0079366
0.00150723 0.0204122 0.0100533
0.001798 0.0255212 0.00498513
0.00190582 0.03073 0.00607052
0.00329654 0.0255035 0.0100848
0.00344439 0.0307227 0.0122378
0.000862562 0.0204287 0.00495744
0.000894924 0.024582 0.00603734
0.00150723 0.0204122 0.0100533
0.00157611 0.0245701 0.0121985
0.00190582 0.03073 0.00607052
0.002072 0.0359248 0.00723249
0.00344439 0.0307227 0.0122378
0.00364016 0.035889 0.0144657
0.000894924 0.024582 0.00603734
0.000932953 0.0287196 0.00719469
0.00157611 0.0245701 0.0121985
0.00164234 0.028676 0.0144184
0.002072 0.0359248 0.00723249
0.00235663 0.041066 0.00855899
0.00364016 0.035889 0.0144657
0.00394081 0.0409506 0.0168539
0.000932953 0.0287196 0.00719469
0.000992047 0.0328068 0.00852291
0.00164234 0.028676 0.0144184
0.00171569 0.0326825 0.0168045
0.00235663 0.041066 0.00855899
0.002829 0.046092 0.0102388
0.00394081 0.0409506 0.0168539
0.00441713 0.0458327 0.0195928
0.000992047 0.0328068 0.00852291
0.00108068 0.0368129 0.0102155
0.00171569 0.0326825 0.0168045
0.0017998 0.0365443 0.0195519
0.002829 0.046092 0.0102388
0.00356714 0.0517164 0.0131919
0.00441713 0.0458327 0.0195928
0.00516202 0.0511686 0.0236447
0.00108068 0.0368129 0.0102155
0.00126837 0.0412636 0.0126441
0.0017998 0.0365443 0.0195519
0.0019788 0.0407158 0.0230969
0 0 0
0.00160201 0.00500741 0.00189075
0 0 0
0.00216245 0.00461672 0.00274142
0 0 0
0.000481966 0.00400886 0.00168909
0 0 0
0.000501238 0.00371385 0.00253565
0.00160201 0.00500741 0.00189075
0.00242939 0.00996645 0.00382136
0.00216245 0.00461672 0.00274142
0.00316301 0.0096333 0.00568835
0.000481966 0.00400886 0.00168909
0.000946358 0.00800556 0.00372851
0.000501238 0.00371385 0.00253565
0.000957886 0.00774837 0.00561027
0.00242939 0.00996645 0.00382136
0.00288842 0.0150739 0.00587217
0.00316301 0.0096333 0.00568835
0.00365124 0.0148766 0.00881473
0.000946358 0.00800556 0.00372851
0.00124334 0.0120913 0.00582727
0.000957886 0.00774837 0.00561027
0.00122757 0.0119358 0.00877945
0.00288842 0.0150739 0.00587217
0.00313793 0.0202727 0.00796677
0.00365124 0.0148766 0.00881473
0.00390583 0.020173 0.0119907
0.00124334 0.0120913 0.00582727
0.00141063 0.0162405 0.0079366
0.00122757 0.0119358 0.00877945
0.00138553 0.0161614 0.0119629
0.00313793 0.0202727 0.00796677
0.00329654 0.0255035 0.0100848
0.00390583 0.020173 0.0119907
0.00408302 0.0254553 0.015187
0.00141063 0.0162405 0.0079366
0.00150723 0.0204122 0.0100533
0.00138553 0.0161614 0.0119629
0.00149802 0.0203748 0.0151516
0.00329654 0.0255035 0.0100848
0.00344439 0.0307227 0.0122378
0.00408302 0.0254553 0.015187
0.00426617 0.0306911 0.0184157
0.00150723 0.0204122 0.0100533
0.00157611 0.0245701 0.0121985
0.00149802 0.0203748 0.0151516
0.00160225 0.0245455 0.0183672
0.00344439 0.0307227 0.0122378
0.00364016 0.035889 0.0144657
0.00426617 0.0306911 0.0184157
0.00450431 0.0358446 0.0217174
0.00157611 0.0245701 0.0121985
0.00164234 0.028676 0.0144184
0.00160225 0.0245455 0.0183672
0.00171195 0.0286375 0.0216555
0.00364016 0.035889 0.0144657
0.00394081 0.0409506 0.0168539
0.00450431 0.0358446 0.0217174
0.00483616 0.0408573 0.0251727
0.00164234 0.028676 0.0144184
0.00171569 0.0326825 0.0168045
0.00171195 0.0286375 0.0216555
0.00181851 0.0325937 0.0251034
0.00394081 0.0409506 0.0168539
0.00441713 0.0458327 0.0195928
0.00483616 0.0408573 0.0251727
0.00531669 0.0456278 0.0289642