# vtk DataFile Version 3.0
#This file was generated by the deal.II library on 2018/10/23 at 21:58:52
ASCII
DATASET UNSTRUCTURED_GRID

POINTS 20 double
0 0 0
0.01 0 0
0.01 0 0
0.02 0 0
0.02 0 0
0.03 0 0
0.03 0 0
0.04 0 0
0.04 0 0
0.05 0 0
0.05 0 0
0.06 0 0
0.06 0 0
0.07 0 0
0.07 0 0
0.08 0 0
0.08 0 0
0.09 0 0
0.09 0 0
0.1 0 0

CELLS 10 30
2	0	1
2	2	3
2	4	5
2	6	7
2	8	9
2	10	11
2	12	13
2	14	15
2	16	17
2	18	19

CELL_TYPES 10
 3 3 3 3 3 3 3 3 3 3
POINT_DATA 20
VECTORS u double
0 0 0
0.00101649 0 0
0.00101649 0 0
0.0020321 0 0
0.0020321 0 0
0.00304613 0 0
0.00304613 0 0
0.00405807 0 0
0.00405807 0 0
0.00506763 0 0
0.00506763 0 0
0.00607471 0 0
0.00607471 0 0
0.00707941 0 0
0.00707941 0 0
0.00808202 0 0
0.00808202 0 0
0.00908305 0 0
0.00908305 0 0
0.0100832 0 0
