# vtk DataFile Version 3.0
#This file was generated by the deal.II library on 2018/10/23 at 21:58:53
ASCII
DATASET UNSTRUCTURED_GRID

POINTS 2000 double
0 0 0
0.0001 0 0
0.0001 0 0
0.0002 0 0
0.0002 0 0
0.0003 0 0
0.0003 0 0
0.0004 0 0
0.0004 0 0
0.0005 0 0
0.0005 0 0
0.0006 0 0
0.0006 0 0
0.0007 0 0
0.0007 0 0
0.0008 0 0
0.0008 0 0
0.0009 0 0
0.0009 0 0
0.001 0 0
0.001 0 0
0.0011 0 0
0.0011 0 0
0.0012 0 0
0.0012 0 0
0.0013 0 0
0.0013 0 0
0.0014 0 0
0.0014 0 0
0.0015 0 0
0.0015 0 0
0.0016 0 0
0.0016 0 0
0.0017 0 0
0.0017 0 0
0.0018 0 0
0.0018 0 0
0.0019 0 0
0.0019 0 0
0.002 0 0
0.002 0 0
0.0021 0 0
0.0021 0 0
0.0022 0 0
0.0022 0 0
0.0023 0 0
0.0023 0 0
0.0024 0 0
0.0024 0 0
0.0025 0 0
0.0025 0 0
0.0026 0 0
0.0026 0 0
0.0027 0 0
0.0027 0 0
0.0028 0 0
0.0028 0 0
0.0029 0 0
0.0029 0 0
0.003 0 0
0.003 0 0
0.0031 0 0
0.0031 0 0
0.0032 0 0
0.0032 0 0
0.0033 0 0
0.0033 0 0
0.0034 0 0
0.0034 0 0
0.0035 0 0
0.0035 0 0
0.0036 0 0
0.0036 0 0
0.0037 0 0
0.0037 0 0
0.0038 0 0
0.0038 0 0
0.0039 0 0
0.0039 0 0
0.004 0 0
0.004 0 0
0.0041 0 0
0.0041 0 0
0.0042 0 0
0.0042 0 0
0.0043 0 0
0.0043 0 0
0.0044 0 0
0.0044 0 0
0.0045 0 0
0.0045 0 0
0.0046 0 0
0.0046 0 0
0.0047 0 0
0.0047 0 0
0.0048 0 0
0.0048 0 0
0.0049 0 0
0.0049 0 0
0.005 0 0
0.005 0 0
0.0051 0 0
0.0051 0 0
0.0052 0 0
0.0052 0 0
0.0053 0 0
0.0053 0 0
0.0054 0 0
0.0054 0 0
0.0055 0 0
0.0055 0 0
0.0056 0 0
0.0056 0 0
0.0057 0 0
0.0057 0 0
0.0058 0 0
0.0058 0 0
0.0059 0 0
0.0059 0 0
0.006 0 0
0.006 0 0
0.0061 0 0
0.0061 0 0
0.0062 0 0
0.0062 0 0
0.0063 0 0
0.0063 0 0
0.0064 0 0
0.0064 0 0
0.0065 0 0
0.0065 0 0
0.0066 0 0
0.0066 0 0
0.0067 0 0
0.0067 0 0
0.0068 0 0
0.0068 0 0
0.0069 0 0
0.0069 0 0
0.007 0 0
0.007 0 0
0.0071 0 0
0.0071 0 0
0.0072 0 0
0.0072 0 0
0.0073 0 0
0.0073 0 0
0.0074 0 0
0.0074 0 0
0.0075 0 0
0.0075 0 0
0.0076 0 0
0.0076 0 0
0.0077 0 0
0.0077 0 0
0.0078 0 0
0.0078 0 0
0.0079 0 0
0.0079 0 0
0.008 0 0
0.008 0 0
0.0081 0 0
0.0081 0 0
0.0082 0 0
0.0082 0 0
0.0083 0 0
0.0083 0 0
0.0084 0 0
0.0084 0 0
0.0085 0 0
0.0085 0 0
0.0086 0 0
0.0086 0 0
0.0087 0 0
0.0087 0 0
0.0088 0 0
0.0088 0 0
0.0089 0 0
0.0089 0 0
0.009 0 0
0.009 0 0
0.0091 0 0
0.0091 0 0
0.0092 0 0
0.0092 0 0
0.0093 0 0
0.0093 0 0
0.0094 0 0
0.0094 0 0
0.0095 0 0
0.0095 0 0
0.0096 0 0
0.0096 0 0
0.0097 0 0
0.0097 0 0
0.0098 0 0
0.0098 0 0
0.0099 0 0
0.0099 0 0
0.01 0 0
0.01 0 0
0.0101 0 0
0.0101 0 0
0.0102 0 0
0.0102 0 0
0.0103 0 0
0.0103 0 0
0.0104 0 0
0.0104 0 0
0.0105 0 0
0.0105 0 0
0.0106 0 0
0.0106 0 0
0.0107 0 0
0.0107 0 0
0.0108 0 0
0.0108 0 0
0.0109 0 0
0.0109 0 0
0.011 0 0
0.011 0 0
0.0111 0 0
0.0111 0 0
0.0112 0 0
0.0112 0 0
0.0113 0 0
0.0113 0 0
0.0114 0 0
0.0114 0 0
0.0115 0 0
0.0115 0 0
0.0116 0 0
0.0116 0 0
0.0117 0 0
0.0117 0 0
0.0118 0 0
0.0118 0 0
0.0119 0 0
0.0119 0 0
0.012 0 0
0.012 0 0
0.0121 0 0
0.0121 0 0
0.0122 0 0
0.0122 0 0
0.0123 0 0
0.0123 0 0
0.0124 0 0
0.0124 0 0
0.0125 0 0
0.0125 0 0
0.0126 0 0
0.0126 0 0
0.0127 0 0
0.0127 0 0
0.0128 0 0
0.0128 0 0
0.0129 0 0
0.0129 0 0
0.013 0 0
0.013 0 0
0.0131 0 0
0.0131 0 0
0.0132 0 0
0.0132 0 0
0.0133 0 0
0.0133 0 0
0.0134 0 0
0.0134 0 0
0.0135 0 0
0.0135 0 0
0.0136 0 0
0.0136 0 0
0.0137 0 0
0.0137 0 0
0.0138 0 0
0.0138 0 0
0.0139 0 0
0.0139 0 0
0.014 0 0
0.014 0 0
0.0141 0 0
0.0141 0 0
0.0142 0 0
0.0142 0 0
0.0143 0 0
0.0143 0 0
0.0144 0 0
0.0144 0 0
0.0145 0 0
0.0145 0 0
0.0146 0 0
0.0146 0 0
0.0147 0 0
0.0147 0 0
0.0148 0 0
0.0148 0 0
0.0149 0 0
0.0149 0 0
0.015 0 0
0.015 0 0
0.0151 0 0
0.0151 0 0
0.0152 0 0
0.0152 0 0
0.0153 0 0
0.0153 0 0
0.0154 0 0
0.0154 0 0
0.0155 0 0
0.0155 0 0
0.0156 0 0
0.0156 0 0
0.0157 0 0
0.0157 0 0
0.0158 0 0
0.0158 0 0
0.0159 0 0
0.0159 0 0
0.016 0 0
0.016 0 0
0.0161 0 0
0.0161 0 0
0.0162 0 0
0.0162 0 0
0.0163 0 0
0.0163 0 0
0.0164 0 0
0.0164 0 0
0.0165 0 0
0.0165 0 0
0.0166 0 0
0.0166 0 0
0.0167 0 0
0.0167 0 0
0.0168 0 0
0.0168 0 0
0.0169 0 0
0.0169 0 0
0.017 0 0
0.017 0 0
0.0171 0 0
0.0171 0 0
0.0172 0 0
0.0172 0 0
0.0173 0 0
0.0173 0 0
0.0174 0 0
0.0174 0 0
0.0175 0 0
0.0175 0 0
0.0176 0 0
0.0176 0 0
0.0177 0 0
0.0177 0 0
0.0178 0 0
0.0178 0 0
0.0179 0 0
0.0179 0 0
0.018 0 0
0.018 0 0
0.0181 0 0
0.0181 0 0
0.0182 0 0
0.0182 0 0
0.0183 0 0
0.0183 0 0
0.0184 0 0
0.0184 0 0
0.0185 0 0
0.0185 0 0
0.0186 0 0
0.0186 0 0
0.0187 0 0
0.0187 0 0
0.0188 0 0
0.0188 0 0
0.0189 0 0
0.0189 0 0
0.019 0 0
0.019 0 0
0.0191 0 0
0.0191 0 0
0.0192 0 0
0.0192 0 0
0.0193 0 0
0.0193 0 0
0.0194 0 0
0.0194 0 0
0.0195 0 0
0.0195 0 0
0.0196 0 0
0.0196 0 0
0.0197 0 0
0.0197 0 0
0.0198 0 0
0.0198 0 0
0.0199 0 0
0.0199 0 0
0.02 0 0
0.02 0 0
0.0201 0 0
0.0201 0 0
0.0202 0 0
0.0202 0 0
0.0203 0 0
0.0203 0 0
0.0204 0 0
0.0204 0 0
0.0205 0 0
0.0205 0 0
0.0206 0 0
0.0206 0 0
0.0207 0 0
0.0207 0 0
0.0208 0 0
0.0208 0 0
0.0209 0 0
0.0209 0 0
0.021 0 0
0.021 0 0
0.0211 0 0
0.0211 0 0
0.0212 0 0
0.0212 0 0
0.0213 0 0
0.0213 0 0
0.0214 0 0
0.0214 0 0
0.0215 0 0
0.0215 0 0
0.0216 0 0
0.0216 0 0
0.0217 0 0
0.0217 0 0
0.0218 0 0
0.0218 0 0
0.0219 0 0
0.0219 0 0
0.022 0 0
0.022 0 0
0.0221 0 0
0.0221 0 0
0.0222 0 0
0.0222 0 0
0.0223 0 0
0.0223 0 0
0.0224 0 0
0.0224 0 0
0.0225 0 0
0.0225 0 0
0.0226 0 0
0.0226 0 0
0.0227 0 0
0.0227 0 0
0.0228 0 0
0.0228 0 0
0.0229 0 0
0.0229 0 0
0.023 0 0
0.023 0 0
0.0231 0 0
0.0231 0 0
0.0232 0 0
0.0232 0 0
0.0233 0 0
0.0233 0 0
0.0234 0 0
0.0234 0 0
0.0235 0 0
0.0235 0 0
0.0236 0 0
0.0236 0 0
0.0237 0 0
0.0237 0 0
0.0238 0 0
0.0238 0 0
0.0239 0 0
0.0239 0 0
0.024 0 0
0.024 0 0
0.0241 0 0
0.0241 0 0
0.0242 0 0
0.0242 0 0
0.0243 0 0
0.0243 0 0
0.0244 0 0
0.0244 0 0
0.0245 0 0
0.0245 0 0
0.0246 0 0
0.0246 0 0
0.0247 0 0
0.0247 0 0
0.0248 0 0
0.0248 0 0
0.0249 0 0
0.0249 0 0
0.025 0 0
0.025 0 0
0.0251 0 0
0.0251 0 0
0.0252 0 0
0.0252 0 0
0.0253 0 0
0.0253 0 0
0.0254 0 0
0.0254 0 0
0.0255 0 0
0.0255 0 0
0.0256 0 0
0.0256 0 0
0.0257 0 0
0.0257 0 0
0.0258 0 0
0.0258 0 0
0.0259 0 0
0.0259 0 0
0.026 0 0
0.026 0 0
0.0261 0 0
0.0261 0 0
0.0262 0 0
0.0262 0 0
0.0263 0 0
0.0263 0 0
0.0264 0 0
0.0264 0 0
0.0265 0 0
0.0265 0 0
0.0266 0 0
0.0266 0 0
0.0267 0 0
0.0267 0 0
0.0268 0 0
0.0268 0 0
0.0269 0 0
0.0269 0 0
0.027 0 0
0.027 0 0
0.0271 0 0
0.0271 0 0
0.0272 0 0
0.0272 0 0
0.0273 0 0
0.0273 0 0
0.0274 0 0
0.0274 0 0
0.0275 0 0
0.0275 0 0
0.0276 0 0
0.0276 0 0
0.0277 0 0
0.0277 0 0
0.0278 0 0
0.0278 0 0
0.0279 0 0
0.0279 0 0
0.028 0 0
0.028 0 0
0.0281 0 0
0.0281 0 0
0.0282 0 0
0.0282 0 0
0.0283 0 0
0.0283 0 0
0.0284 0 0
0.0284 0 0
0.0285 0 0
0.0285 0 0
0.0286 0 0
0.0286 0 0
0.0287 0 0
0.0287 0 0
0.0288 0 0
0.0288 0 0
0.0289 0 0
0.0289 0 0
0.029 0 0
0.029 0 0
0.0291 0 0
0.0291 0 0
0.0292 0 0
0.0292 0 0
0.0293 0 0
0.0293 0 0
0.0294 0 0
0.0294 0 0
0.0295 0 0
0.0295 0 0
0.0296 0 0
0.0296 0 0
0.0297 0 0
0.0297 0 0
0.0298 0 0
0.0298 0 0
0.0299 0 0
0.0299 0 0
0.03 0 0
0.03 0 0
0.0301 0 0
0.0301 0 0
0.0302 0 0
0.0302 0 0
0.0303 0 0
0.0303 0 0
0.0304 0 0
0.0304 0 0
0.0305 0 0
0.0305 0 0
0.0306 0 0
0.0306 0 0
0.0307 0 0
0.0307 0 0
0.0308 0 0
0.0308 0 0
0.0309 0 0
0.0309 0 0
0.031 0 0
0.031 0 0
0.0311 0 0
0.0311 0 0
0.0312 0 0
0.0312 0 0
0.0313 0 0
0.0313 0 0
0.0314 0 0
0.0314 0 0
0.0315 0 0
0.0315 0 0
0.0316 0 0
0.0316 0 0
0.0317 0 0
0.0317 0 0
0.0318 0 0
0.0318 0 0
0.0319 0 0
0.0319 0 0
0.032 0 0
0.032 0 0
0.0321 0 0
0.0321 0 0
0.0322 0 0
0.0322 0 0
0.0323 0 0
0.0323 0 0
0.0324 0 0
0.0324 0 0
0.0325 0 0
0.0325 0 0
0.0326 0 0
0.0326 0 0
0.0327 0 0
0.0327 0 0
0.0328 0 0
0.0328 0 0
0.0329 0 0
0.0329 0 0
0.033 0 0
0.033 0 0
0.0331 0 0
0.0331 0 0
0.0332 0 0
0.0332 0 0
0.0333 0 0
0.0333 0 0
0.0334 0 0
0.0334 0 0
0.0335 0 0
0.0335 0 0
0.0336 0 0
0.0336 0 0
0.0337 0 0
0.0337 0 0
0.0338 0 0
0.0338 0 0
0.0339 0 0
0.0339 0 0
0.034 0 0
0.034 0 0
0.0341 0 0
0.0341 0 0
0.0342 0 0
0.0342 0 0
0.0343 0 0
0.0343 0 0
0.0344 0 0
0.0344 0 0
0.0345 0 0
0.0345 0 0
0.0346 0 0
0.0346 0 0
0.0347 0 0
0.0347 0 0
0.0348 0 0
0.0348 0 0
0.0349 0 0
0.0349 0 0
0.035 0 0
0.035 0 0
0.0351 0 0
0.0351 0 0
0.0352 0 0
0.0352 0 0
0.0353 0 0
0.0353 0 0
0.0354 0 0
0.0354 0 0
0.0355 0 0
0.0355 0 0
0.0356 0 0
0.0356 0 0
0.0357 0 0
0.0357 0 0
0.0358 0 0
0.0358 0 0
0.0359 0 0
0.0359 0 0
0.036 0 0
0.036 0 0
0.0361 0 0
0.0361 0 0
0.0362 0 0
0.0362 0 0
0.0363 0 0
0.0363 0 0
0.0364 0 0
0.0364 0 0
0.0365 0 0
0.0365 0 0
0.0366 0 0
0.0366 0 0
0.0367 0 0
0.0367 0 0
0.0368 0 0
0.0368 0 0
0.0369 0 0
0.0369 0 0
0.037 0 0
0.037 0 0
0.0371 0 0
0.0371 0 0
0.0372 0 0
0.0372 0 0
0.0373 0 0
0.0373 0 0
0.0374 0 0
0.0374 0 0
0.0375 0 0
0.0375 0 0
0.0376 0 0
0.0376 0 0
0.0377 0 0
0.0377 0 0
0.0378 0 0
0.0378 0 0
0.0379 0 0
0.0379 0 0
0.038 0 0
0.038 0 0
0.0381 0 0
0.0381 0 0
0.0382 0 0
0.0382 0 0
0.0383 0 0
0.0383 0 0
0.0384 0 0
0.0384 0 0
0.0385 0 0
0.0385 0 0
0.0386 0 0
0.0386 0 0
0.0387 0 0
0.0387 0 0
0.0388 0 0
0.0388 0 0
0.0389 0 0
0.0389 0 0
0.039 0 0
0.039 0 0
0.0391 0 0
0.0391 0 0
0.0392 0 0
0.0392 0 0
0.0393 0 0
0.0393 0 0
0.0394 0 0
0.0394 0 0
0.0395 0 0
0.0395 0 0
0.0396 0 0
0.0396 0 0
0.0397 0 0
0.0397 0 0
0.0398 0 0
0.0398 0 0
0.0399 0 0
0.0399 0 0
0.04 0 0
0.04 0 0
0.0401 0 0
0.0401 0 0
0.0402 0 0
0.0402 0 0
0.0403 0 0
0.0403 0 0
0.0404 0 0
0.0404 0 0
0.0405 0 0
0.0405 0 0
0.0406 0 0
0.0406 0 0
0.0407 0 0
0.0407 0 0
0.0408 0 0
0.0408 0 0
0.0409 0 0
0.0409 0 0
0.041 0 0
0.041 0 0
0.0411 0 0
0.0411 0 0
0.0412 0 0
0.0412 0 0
0.0413 0 0
0.0413 0 0
0.0414 0 0
0.0414 0 0
0.0415 0 0
0.0415 0 0
0.0416 0 0
0.0416 0 0
0.0417 0 0
0.0417 0 0
0.0418 0 0
0.0418 0 0
0.0419 0 0
0.0419 0 0
0.042 0 0
0.042 0 0
0.0421 0 0
0.0421 0 0
0.0422 0 0
0.0422 0 0
0.0423 0 0
0.0423 0 0
0.0424 0 0
0.0424 0 0
0.0425 0 0
0.0425 0 0
0.0426 0 0
0.0426 0 0
0.0427 0 0
0.0427 0 0
0.0428 0 0
0.0428 0 0
0.0429 0 0
0.0429 0 0
0.043 0 0
0.043 0 0
0.0431 0 0
0.0431 0 0
0.0432 0 0
0.0432 0 0
0.0433 0 0
0.0433 0 0
0.0434 0 0
0.0434 0 0
0.0435 0 0
0.0435 0 0
0.0436 0 0
0.0436 0 0
0.0437 0 0
0.0437 0 0
0.0438 0 0
0.0438 0 0
0.0439 0 0
0.0439 0 0
0.044 0 0
0.044 0 0
0.0441 0 0
0.0441 0 0
0.0442 0 0
0.0442 0 0
0.0443 0 0
0.0443 0 0
0.0444 0 0
0.0444 0 0
0.0445 0 0
0.0445 0 0
0.0446 0 0
0.0446 0 0
0.0447 0 0
0.0447 0 0
0.0448 0 0
0.0448 0 0
0.0449 0 0
0.0449 0 0
0.045 0 0
0.045 0 0
0.0451 0 0
0.0451 0 0
0.0452 0 0
[...]
POINT_DATA 2000
VECTORS u double
0 0 0
1.08333e-06 0 0
1.08333e-06 0 0
2.16667e-06 0 0
2.16667e-06 0 0
3.25e-06 0 0
3.25e-06 0 0
4.33332e-06 0 0
4.33332e-06 0 0
5.41665e-06 0 0
5.41665e-06 0 0
6.49996e-06 0 0
6.49996e-06 0 0
7.58328e-06 0 0
7.58328e-06 0 0
8.66658e-06 0 0
8.66658e-06 0 0
9.74988e-06 0 0
9.74988e-06 0 0
1.08332e-05 0 0
1.08332e-05 0 0
1.19164e-05 0 0
1.19164e-05 0 0
1.29997e-05 0 0
1.29997e-05 0 0
1.4083e-05 0 0
1.4083e-05 0 0
1.51662e-05 0 0
1.51662e-05 0 0
1.62494e-05 0 0
1.62494e-05 0 0
1.73327e-05 0 0
1.73327e-05 0 0
1.84159e-05 0 0
1.84159e-05 0 0
1.9499e-05 0 0
1.9499e-05 0 0
2.05822e-05 0 0
2.05822e-05 0 0
2.16653e-05 0 0
2.16653e-05 0 0
2.27485e-05 0 0
2.27485e-05 0 0
2.38316e-05 0 0
2.38316e-05 0 0
2.49147e-05 0 0
2.49147e-05 0 0
2.59977e-05 0 0
2.59977e-05 0 0
2.70808e-05 0 0
2.70808e-05 0 0
2.81638e-05 0 0
2.81638e-05 0 0
2.92468e-05 0 0
2.92468e-05 0 0
3.03297e-05 0 0
3.03297e-05 0 0
3.14127e-05 0 0
3.14127e-05 0 0
3.24956e-05 0 0
3.24956e-05 0 0
3.35784e-05 0 0
3.35784e-05 0 0
3.46613e-05 0 0
3.46613e-05 0 0
3.57441e-05 0 0
3.57441e-05 0 0
3.68269e-05 0 0
3.68269e-05 0 0
3.79096e-05 0 0
3.79096e-05 0 0
3.89924e-05 0 0
3.89924e-05 0 0
4.0075e-05 0 0
4.0075e-05 0 0
4.11577e-05 0 0
4.11577e-05 0 0
4.22403e-05 0 0
4.22403e-05 0 0
4.33229e-05 0 0
4.33229e-05 0 0
4.44054e-05 0 0
4.44054e-05 0 0
4.54879e-05 0 0
4.54879e-05 0 0
4.65704e-05 0 0
4.65704e-05 0 0
4.76528e-05 0 0
4.76528e-05 0 0
4.87352e-05 0 0
4.87352e-05 0 0
4.98175e-05 0 0
4.98175e-05 0 0
5.08998e-05 0 0
5.08998e-05 0 0
5.1982e-05 0 0
5.1982e-05 0 0
5.30642e-05 0 0
5.30642e-05 0 0
5.41464e-05 0 0
5.41464e-05 0 0
5.52285e-05 0 0
5.52285e-05 0 0
5.63105e-05 0 0
5.63105e-05 0 0
5.73925e-05 0 0
5.73925e-05 0 0
5.84745e-05 0 0
5.84745e-05 0 0
5.95564e-05 0 0
5.95564e-05 0 0
6.06382e-05 0 0
6.06382e-05 0 0
6.172e-05 0 0
6.172e-05 0 0
6.28018e-05 0 0
6.28018e-05 0 0
6.38834e-05 0 0
6.38834e-05 0 0
6.49651e-05 0 0
6.49651e-05 0 0
6.60467e-05 0 0
6.60467e-05 0 0
6.71282e-05 0 0
6.71282e-05 0 0
6.82096e-05 0 0
6.82096e-05 0 0
6.9291e-05 0 0
6.9291e-05 0 0
7.03724e-05 0 0
7.03724e-05 0 0
7.14537e-05 0 0
7.14537e-05 0 0
7.25349e-05 0 0
7.25349e-05 0 0
7.3616e-05 0 0
7.3616e-05 0 0
7.46971e-05 0 0
7.46971e-05 0 0
7.57782e-05 0 0
7.57782e-05 0 0
7.68591e-05 0 0
7.68591e-05 0 0
7.794e-05 0 0
7.794e-05 0 0
7.90209e-05 0 0
7.90209e-05 0 0
8.01016e-05 0 0
8.01016e-05 0 0
8.11823e-05 0 0
8.11823e-05 0 0
8.2263e-05 0 0
8.2263e-05 0 0
8.33435e-05 0 0
8.33435e-05 0 0
8.4424e-05 0 0
8.4424e-05 0 0
8.55044e-05 0 0
8.55044e-05 0 0
8.65847e-05 0 0
8.65847e-05 0 0
8.7665e-05 0 0
8.7665e-05 0 0
8.87452e-05 0 0
8.87452e-05 0 0
8.98253e-05 0 0
8.98253e-05 0 0
9.09054e-05 0 0
9.09054e-05 0 0
9.19853e-05 0 0
9.19853e-05 0 0
9.30652e-05 0 0
9.30652e-05 0 0
9.4145e-05 0 0
9.4145e-05 0 0
9.52248e-05 0 0
9.52248e-05 0 0
9.63044e-05 0 0
9.63044e-05 0 0
9.7384e-05 0 0
9.7384e-05 0 0
9.84635e-05 0 0
9.84635e-05 0 0
9.95429e-05 0 0
9.95429e-05 0 0
0.000100622 0 0
0.000100622 0 0
0.000101701 0 0
0.000101701 0 0
0.000102781 0 0
0.000102781 0 0
0.00010386 0 0
0.00010386 0 0
0.000104939 0 0
0.000104939 0 0
0.000106017 0 0
0.000106017 0 0
0.000107096 0 0
0.000107096 0 0
0.000108175 0 0
0.000108175 0 0
0.000109254 0 0
0.000109254 0 0
0.000110332 0 0
0.000110332 0 0
0.000111411 0 0
0.000111411 0 0
0.000112489 0 0
0.000112489 0 0
0.000113567 0 0
0.000113567 0 0
0.000114645 0 0
0.000114645 0 0
0.000115723 0 0
0.000115723 0 0
0.000116801 0 0
0.000116801 0 0
0.000117879 0 0
0.000117879 0 0
0.000118957 0 0
0.000118957 0 0
0.000120035 0 0
0.000120035 0 0
0.000121112 0 0
0.000121112 0 0
0.00012219 0 0
0.00012219 0 0
0.000123267 0 0
0.000123267 0 0
0.000124344 0 0
0.000124344 0 0
0.000125422 0 0
0.000125422 0 0
0.000126499 0 0
0.000126499 0 0
0.000127576 0 0
0.000127576 0 0
0.000128653 0 0
0.000128653 0 0
0.000129729 0 0
0.000129729 0 0
0.000130806 0 0
0.000130806 0 0
0.000131882 0 0
0.000131882 0 0
0.000132959 0 0
0.000132959 0 0
0.000134035 0 0
0.000134035 0 0
0.000135111 0 0
0.000135111 0 0
0.000136188 0 0
0.000136188 0 0
0.000137264 0 0
0.000137264 0 0
0.00013834 0 0
0.00013834 0 0
0.000139415 0 0
0.000139415 0 0
0.000140491 0 0
0.000140491 0 0
0.000141567 0 0
0.000141567 0 0
0.000142642 0 0
0.000142642 0 0
0.000143717 0 0
0.000143717 0 0
0.000144793 0 0
0.000144793 0 0
0.000145868 0 0
0.000145868 0 0
0.000146943 0 0
0.000146943 0 0
0.000148017 0 0
0.000148017 0 0
0.000149092 0 0
0.000149092 0 0
0.000150167 0 0
0.000150167 0 0
0.000151241 0 0
0.000151241 0 0
0.000152316 0 0
0.000152316 0 0
0.00015339 0 0
0.00015339 0 0
0.000154464 0 0
0.000154464 0 0
0.000155538 0 0
0.000155538 0 0
0.000156612 0 0
0.000156612 0 0
0.000157686 0 0
0.000157686 0 0
0.000158759 0 0
0.000158759 0 0
0.000159833 0 0
0.000159833 0 0
0.000160906 0 0
0.000160906 0 0
0.00016198 0 0
0.00016198 0 0
0.000163053 0 0
0.000163053 0 0
0.000164126 0 0
0.000164126 0 0
0.000165199 0 0
0.000165199 0 0
0.000166271 0 0
0.000166271 0 0
0.000167344 0 0
0.000167344 0 0
0.000168417 0 0
0.000168417 0 0
0.000169489 0 0
0.000169489 0 0
0.000170561 0 0
0.000170561 0 0
0.000171633 0 0
0.000171633 0 0
0.000172705 0 0
0.000172705 0 0
0.000173777 0 0
0.000173777 0 0
0.000174849 0 0
0.000174849 0 0
0.00017592 0 0
0.00017592 0 0
0.000176992 0 0
0.000176992 0 0
0.000178063 0 0
0.000178063 0 0
0.000179134 0 0
0.000179134 0 0
0.000180205 0 0
0.000180205 0 0
0.000181276 0 0
0.000181276 0 0
0.000182347 0 0
0.000182347 0 0
0.000183417 0 0
0.000183417 0 0
0.000184488 0 0
0.000184488 0 0
0.000185558 0 0
0.000185558 0 0
0.000186628 0 0
0.000186628 0 0
0.000187698 0 0
0.000187698 0 0
0.000188768 0 0
0.000188768 0 0
0.000189838 0 0
0.000189838 0 0
0.000190908 0 0
0.000190908 0 0
0.000191977 0 0
0.000191977 0 0
0.000193046 0 0
0.000193046 0 0
0.000194115 0 0
0.000194115 0 0
0.000195184 0 0
0.000195184 0 0
0.000196253 0 0
0.000196253 0 0
0.000197322 0 0
0.000197322 0 0
0.000198391 0 0
0.000198391 0 0
0.000199459 0 0
0.000199459 0 0
0.000200527 0 0
0.000200527 0 0
0.000201595 0 0
0.000201595 0 0
0.000202663 0 0
0.000202663 0 0
0.000203731 0 0
0.000203731 0 0
0.000204799 0 0
0.000204799 0 0
0.000205866 0 0
0.000205866 0 0
0.000206934 0 0
0.000206934 0 0
0.000208001 0 0
0.000208001 0 0
0.000209068 0 0
0.000209068 0 0
0.000210135 0 0
0.000210135 0 0
0.000211201 0 0
0.000211201 0 0
0.000212268 0 0
0.000212268 0 0
0.000213334 0 0
0.000213334 0 0
0.000214401 0 0
0.000214401 0 0
0.000215467 0 0
0.000215467 0 0
0.000216533 0 0
0.000216533 0 0
0.000217598 0 0
0.000217598 0 0
0.000218664 0 0
0.000218664 0 0
0.000219729 0 0
0.000219729 0 0
0.000220795 0 0
0.000220795 0 0
0.00022186 0 0
0.00022186 0 0
0.000222925 0 0
0.000222925 0 0
0.000223989 0 0
0.000223989 0 0
0.000225054 0 0
0.000225054 0 0
0.000226119 0 0
0.000226119 0 0
0.000227183 0 0
0.000227183 0 0
0.000228247 0 0
0.000228247 0 0
0.000229311 0 0
0.000229311 0 0
0.000230375 0 0
0.000230375 0 0
0.000231438 0 0
0.000231438 0 0
0.000232502 0 0
0.000232502 0 0
0.000233565 0 0
0.000233565 0 0
0.000234628 0 0
0.000234628 0 0
0.000235691 0 0
0.000235691 0 0
0.000236754 0 0
0.000236754 0 0
0.000237816 0 0
0.000237816 0 0
0.000238879 0 0
0.000238879 0 0
0.000239941 0 0
0.000239941 0 0
0.000241003 0 0
0.000241003 0 0
0.000242065 0 0
0.000242065 0 0
0.000243127 0 0
0.000243127 0 0
0.000244188 0 0
0.000244188 0 0
0.00024525 0 0
0.00024525 0 0
0.000246311 0 0
0.000246311 0 0
0.000247372 0 0
0.000247372 0 0
0.000248433 0 0
0.000248433 0 0
0.000249494 0 0
0.000249494 0 0
0.000250554 0 0
0.000250554 0 0
0.000251614 0 0
0.000251614 0 0
0.000252675 0 0
0.000252675 0 0
0.000253734 0 0
0.000253734 0 0
0.000254794 0 0
0.000254794 0 0
0.000255854 0 0
0.000255854 0 0
0.000256913 0 0
0.000256913 0 0
0.000257972 0 0
0.000257972 0 0
0.000259032 0 0
0.000259032 0 0
0.00026009 0 0
0.00026009 0 0
0.000261149 0 0
0.000261149 0 0
0.000262208 0 0
0.000262208 0 0
0.000263266 0 0
0.000263266 0 0
0.000264324 0 0
0.000264324 0 0
0.000265382 0 0
0.000265382 0 0
0.00026644 0 0
0.00026644 0 0
0.000267497 0 0
0.000267497 0 0
0.000268555 0 0
0.000268555 0 0
0.000269612 0 0
0.000269612 0 0
0.000270669 0 0
0.000270669 0 0
0.000271726 0 0
0.000271726 0 0
0.000272782 0 0
0.000272782 0 0
0.000273839 0 0
0.000273839 0 0
0.000274895 0 0
0.000274895 0 0
0.000275951 0 0
0.000275951 0 0
0.000277007 0 0
0.000277007 0 0
0.000278063 0 0
0.000278063 0 0
0.000279118 0 0
0.000279118 0 0
0.000280173 0 0
0.000280173 0 0
0.000281229 0 0
0.000281229 0 0
0.000282283 0 0
0.000282283 0 0
0.000283338 0 0
0.000283338 0 0
0.000284393 0 0
0.000284393 0 0
0.000285447 0 0
0.000285447 0 0
0.000286501 0 0
0.000286501 0 0
0.000287555 0 0
0.000287555 0 0
0.000288609 0 0
0.000288609 0 0
0.000289662 0 0
0.000289662 0 0
0.000290716 0 0
0.000290716 0 0
0.000291769 0 0
0.000291769 0 0
0.000292822 0 0
0.000292822 0 0
0.000293875 0 0
0.000293875 0 0
0.000294927 0 0
0.000294927 0 0
0.000295979 0 0
0.000295979 0 0
0.000297032 0 0
0.000297032 0 0
0.000298084 0 0
0.000298084 0 0
0.000299135 0 0
0.000299135 0 0
0.000300187 0 0
0.000300187 0 0
0.000301238 0 0
0.000301238 0 0
0.000302289 0 0
0.000302289 0 0
0.00030334 0 0
0.00030334 0 0
0.000304391 0 0
0.000304391 0 0
0.000305442 0 0
0.000305442 0 0
0.000306492 0 0
0.000306492 0 0
0.000307542 0 0
0.000307542 0 0
0.000308592 0 0
0.000308592 0 0
0.000309642 0 0
0.000309642 0 0
0.000310691 0 0
0.000310691 0 0
0.000311741 0 0
0.000311741 0 0
0.00031279 0 0
0.00031279 0 0
0.000313839 0 0
0.000313839 0 0
0.000314887 0 0
0.000314887 0 0
0.000315936 0 0
0.000315936 0 0
0.000316984 0 0
0.000316984 0 0
0.000318032 0 0
0.000318032 0 0
0.00031908 0 0
0.00031908 0 0
0.000320128 0 0
0.000320128 0 0
0.000321175 0 0
0.000321175 0 0
0.000322222 0 0
0.000322222 0 0
0.000323269 0 0
0.000323269 0 0
0.000324316 0 0
0.000324316 0 0
0.000325363 0 0
0.000325363 0 0
0.000326409 0 0
0.000326409 0 0
0.000327455 0 0
0.000327455 0 0
0.000328501 0 0
0.000328501 0 0
0.000329547 0 0
0.000329547 0 0
0.000330592 0 0
0.000330592 0 0
0.000331638 0 0
0.000331638 0 0
0.000332683 0 0
0.000332683 0 0
0.000333728 0 0
0.000333728 0 0
0.000334772 0 0
0.000334772 0 0
0.000335817 0 0
0.000335817 0 0
0.000336861 0 0
0.000336861 0 0
0.000337905 0 0
0.000337905 0 0
0.000338949 0 0
0.000338949 0 0
0.000339993 0 0
0.000339993 0 0
0.000341036 0 0
0.000341036 0 0
0.000342079 0 0
0.000342079 0 0
0.000343122 0 0
0.000343122 0 0
0.000344165 0 0
0.000344165 0 0
0.000345207 0 0
0.000345207 0 0
0.00034625 0 0
0.00034625 0 0
0.000347292 0 0
0.000347292 0 0
0.000348334 0 0
0.000348334 0 0
0.000349375 0 0
0.000349375 0 0
0.000350417 0 0
0.000350417 0 0
0.000351458 0 0
0.000351458 0 0
0.000352499 0 0
0.000352499 0 0
0.00035354 0 0
0.00035354 0 0
0.00035458 0 0
0.00035458 0 0
0.00035562 0 0
0.00035562 0 0
0.00035666 0 0
0.00035666 0 0
0.0003577 0 0
0.0003577 0 0
0.00035874 0 0
0.00035874 0 0
0.000359779 0 0
0.000359779 0 0
0.000360819 0 0
0.000360819 0 0
0.000361858 0 0
0.000361858 0 0
0.000362896 0 0
0.000362896 0 0
0.000363935 0 0
0.000363935 0 0
0.000364973 0 0
0.000364973 0 0
0.000366011 0 0
0.000366011 0 0
0.000367049 0 0
0.000367049 0 0
0.000368087 0 0
0.000368087 0 0
0.000369124 0 0
0.000369124 0 0
0.000370161 0 0
0.000370161 0 0
0.000371198 0 0
0.000371198 0 0
0.000372235 0 0
0.000372235 0 0
0.000373271 0 0
0.000373271 0 0
0.000374308 0 0
0.000374308 0 0
0.000375344 0 0
0.000375344 0 0
0.000376379 0 0
0.000376379 0 0
0.000377415 0 0
0.000377415 0 0
0.00037845 0 0
0.00037845 0 0
0.000379485 0 0
0.000379485 0 0
0.00038052 0 0
0.00038052 0 0
0.000381555 0 0
0.000381555 0 0
0.000382589 0 0
0.000382589 0 0
0.000383624 0 0
0.000383624 0 0
0.000384658 0 0
0.000384658 0 0
0.000385691 0 0
0.000385691 0 0
0.000386725 0 0
0.000386725 0 0
0.000387758 0 0
0.000387758 0 0
0.000388791 0 0
0.000388791 0 0
0.000389824 0 0
0.000389824 0 0
0.000390857 0 0
0.000390857 0 0
0.000391889 0 0
0.000391889 0 0
0.000392921 0 0
0.000392921 0 0
0.000393953 0 0
0.000393953 0 0
0.000394985 0 0
0.000394985 0 0
0.000396016 0 0
0.000396016 0 0
0.000397047 0 0
0.000397047 0 0
0.000398078 0 0
0.000398078 0 0
0.000399109 0 0
0.000399109 0 0
0.000400139 0 0
0.000400139 0 0
0.00040117 0 0
0.00040117 0 0
0.0004022 0 0
0.0004022 0 0
0.000403229 0 0
0.000403229 0 0
0.000404259 0 0
0.000404259 0 0
0.000405288 0 0
0.000405288 0 0
0.000406317 0 0
0.000406317 0 0
0.000407346 0 0
0.000407346 0 0
0.000408375 0 0
0.000408375 0 0
0.000409403 0 0
0.000409403 0 0
0.000410431 0 0
0.000410431 0 0
0.000411459 0 0
0.000411459 0 0
0.000412487 0 0
0.000412487 0 0
0.000413514 0 0
0.000413514 0 0
0.000414541 0 0
0.000414541 0 0
0.000415568 0 0
0.000415568 0 0
0.000416595 0 0
0.000416595 0 0
0.000417621 0 0
0.000417621 0 0
0.000418648 0 0
0.000418648 0 0
0.000419674 0 0
0.000419674 0 0
0.000420699 0 0
0.000420699 0 0
0.000421725 0 0
0.000421725 0 0
0.00042275 0 0
0.00042275 0 0
0.000423775 0 0
0.000423775 0 0
0.0004248 0 0
0.0004248 0 0
0.000425825 0 0
0.000425825 0 0
0.000426849 0 0
0.000426849 0 0
0.000427873 0 0
0.000427873 0 0
0.000428897 0 0
0.000428897 0 0
0.00042992 0 0
0.00042992 0 0
0.000430944 0 0
0.000430944 0 0
0.000431967 0 0
0.000431967 0 0
0.00043299 0 0
0.00043299 0 0
0.000434012 0 0
0.000434012 0 0
0.000435035 0 0
0.000435035 0 0
0.000436057 0 0
0.000436057 0 0
0.000437079 0 0
0.000437079 0 0
0.0004381 0 0
0.0004381 0 0
0.000439122 0 0
0.000439122 0 0
0.000440143 0 0
0.000440143 0 0
0.000441164 0 0
0.000441164 0 0
0.000442185 0 0
0.000442185 0 0
0.000443205 0 0
0.000443205 0 0
0.000444225 0 0
0.000444225 0 0
0.000445245 0 0
0.000445245 0 0
0.000446265 0 0
0.000446265 0 0
0.000447284 0 0
0.000447284 0 0
0.000448303 0 0
0.000448303 0 0
0.000449322 0 0
0.000449322 0 0
0.000450341 0 0
0.000450341 0 0
0.00045136 0 0
0.00045136 0 0
0.000452378 0 0
0.000452378 0 0
0.000453396 0 0
0.000453396 0 0
0.000454414 0 0
0.000454414 0 0
0.000455431 0 0
0.000455431 0 0
0.000456448 0 0
0.000456448 0 0
0.000457465 0 0
0.000457465 0 0
0.000458482 0 0
0.000458482 0 0
0.000459499 0 0
0.000459499 0 0
0.000460515 0 0
0.000460515 0 0
0.000461531 0 0
0.000461531 0 0
0.000462547 0 0
0.000462547 0 0
0.000463562 0 0
0.000463562 0 0
0.000464578 0 0
0.000464578 0 0
0.000465593 0 0
0.000465593 0 0
0.000466608 0 0
0.000466608 0 0
0.000467622 0 0
0.000467622 0 0
0.000468636 0 0
0.000468636 0 0
0.00046965 0 0
0.00046965 0 0
0.000470664 0 0
0.000470664 0 0
0.000471678 0 0
0.000471678 0 0
0.000472691 0 0
0.000472691 0 0
0.000473704 0 0
0.000473704 0 0
0.000474717 0 0
0.000474717 0 0
0.00047573 0 0
0.00047573 0 0
0.000476742 0 0
0.000476742 0 0
0.000477754 0 0
0.000477754 0 0
0.000478766 0 0
0.000478766 0 0
0.000479778 0 0
0.000479778 0 0
0.000480789 0 0
0.000480789 0 0
0.0004818 0 0
0.0004818 0 0
0.000482811 0 0
0.000482811 0 0
0.000483821 0 0
0.000483821 0 0
0.000484832 0 0
0.000484832 0 0
0.000485842 0 0
0.000485842 0 0
0.000486852 0 0
0.000486852 0 0
0.000487861 0 0
0.000487861 0 0
0.000488871 0 0
0.000488871 0 0
0.00048988 0 0
0.00048988 0 0
0.000490889 0 0
0.000490889 0 0
0.000491897 0 0
0.000491897 0 0
0.000492906 0 0
0.000492906 0 0
0.000493914 0 0
0.000493914 0 0
0.000494922 0 0
0.000494922 0 0
0.000495929 0 0
0.000495929 0 0
0.000496937 0 0
0.000496937 0 0
0.000497944 0 0
0.000497944 0 0
0.000498951 0 0
0.000498951 0 0
0.000499957 0 0
0.000499957 0 0
0.000500964 0 0
0.000500964 0 0
0.00050197 0 0
0.00050197 0 0
0.000502976 0 0
0.000502976 0 0
0.000503981 0 0
0.000503981 0 0
0.000504987 0 0
0.000504987 0 0
0.000505992 0 0
0.000505992 0 0
0.000506997 0 0
0.000506997 0 0
0.000508001 0 0
0.000508001 0 0
0.000509006 0 0
0.000509006 0 0
0.00051001 0 0
0.00051001 0 0
0.000511014 0 0
0.000511014 0 0
0.000512017 0 0
0.000512017 0 0
0.000513021 0 0
0.000513021 0 0
0.000514024 0 0
0.000514024 0 0
0.000515027 0 0
0.000515027 0 0
0.000516029 0 0
0.000516029 0 0
0.000517032 0 0
0.000517032 0 0
0.000518034 0 0
0.000518034 0 0
0.000519036 0 0
0.000519036 0 0
0.000520037 0 0
0.000520037 0 0
0.000521039 0 0
0.000521039 0 0
0.00052204 0 0
0.00052204 0 0
0.000523041 0 0
0.000523041 0 0
0.000524041 0 0
0.000524041 0 0
0.000525042 0 0
0.000525042 0 0
0.000526042 0 0
0.000526042 0 0
0.000527042 0 0
0.000527042 0 0
0.000528041 0 0
0.000528041 0 0
0.000529041 0 0
0.000529041 0 0
0.00053004 0 0
0.00053004 0 0
0.000531039 0 0
0.000531039 0 0
0.000532037 0 0
0.000532037 0 0
0.000533036 0 0
0.000533036 0 0
0.000534034 0 0
0.000534034 0 0
0.000535032 0 0
0.000535032 0 0
0.000536029 0 0
0.000536029 0 0
0.000537027 0 0
0.000537027 0 0
0.000538024 0 0
0.000538024 0 0
0.000539021 0 0
0.000539021 0 0
0.000540017 0 0
0.000540017 0 0
0.000541014 0 0
0.000541014 0 0
0.00054201 0 0
0.00054201 0 0
0.000543006 0 0
0.000543006 0 0
0.000544001 0 0
0.000544001 0 0
0.000544997 0 0
0.000544997 0 0
0.000545992 0 0
0.000545992 0 0
0.000546987 0 0
0.000546987 0 0
0.000547981 0 0
0.000547981 0 0
0.000548976 0 0
0.000548976 0 0
0.00054997 0 0
0.00054997 0 0
0.000550964 0 0
0.000550964 0 0
0.000551957 0 0
0.000551957 0 0
0.000552951 0 0
0.000552951 0 0
0.000553944 0 0
0.000553944 0 0
0.000554937 0 0
0.000554937 0 0
0.000555929 0 0
0.000555929 0 0
0.000556922 0 0
0.000556922 0 0
0.000557914 0 0
0.000557914 0 0
0.000558906 0 0
0.000558906 0 0
0.000559897 0 0
0.000559897 0 0
0.000560889 0 0
0.000560889 0 0
0.00056188 0 0
0.00056188 0 0
0.000562871 0 0
0.000562871 0 0
0.000563861 0 0
0.000563861 0 0
0.000564852 0 0
0.000564852 0 0
0.000565842 0 0
0.000565842 0 0
0.000566832 0 0
0.000566832 0 0
0.000567821 0 0
0.000567821 0 0
0.000568811 0 0
0.000568811 0 0
0.0005698 0 0
0.0005698 0 0
0.000570789 0 0
0.000570789 0 0
0.000571778 0 0
0.000571778 0 0
0.000572766 0 0
0.000572766 0 0
0.000573754 0 0
0.000573754 0 0
0.000574742 0 0
0.000574742 0 0
0.00057573 0 0
0.00057573 0 0
0.000576717 0 0
0.000576717 0 0
0.000577704 0 0
0.000577704 0 0
0.000578691 0 0
0.000578691 0 0
0.000579678 0 0
0.000579678 0 0
0.000580664 0 0
0.000580664 0 0
0.00058165 0 0
0.00058165 0 0
0.000582636 0 0
0.000582636 0 0
0.000583622 0 0
0.000583622 0 0
0.000584608 0 0
0.000584608 0 0
0.000585593 0 0
0.000585593 0 0
0.000586578 0 0
0.000586578 0 0
0.000587562 0 0
0.000587562 0 0
0.000588547 0 0
0.000588547 0 0
0.000589531 0 0
0.000589531 0 0
0.000590515 0 0
0.000590515 0 0
0.000591499 0 0
0.000591499 0 0
0.000592482 0 0
0.000592482 0 0
0.000593465 0 0
0.000593465 0 0
0.000594448 0 0
0.000594448 0 0
0.000595431 0 0
0.000595431 0 0
0.000596414 0 0
0.000596414 0 0
0.000597396 0 0
0.000597396 0 0
0.000598378 0 0
0.000598378 0 0
0.00059936 0 0
0.00059936 0 0
0.000600341 0 0
0.000600341 0 0
0.000601322 0 0
0.000601322 0 0
0.000602303 0 0
0.000602303 0 0
0.000603284 0 0
0.000603284 0 0
0.000604265 0 0
0.000604265 0 0
0.000605245 0 0
0.000605245 0 0
0.000606225 0 0
0.000606225 0 0
0.000607205 0 0
0.000607205 0 0
0.000608184 0 0
0.000608184 0 0
0.000609164 0 0
0.000609164 0 0
0.000610143 0 0
0.000610143 0 0
0.000611122 0 0
0.000611122 0 0
0.0006121 0 0
0.0006121 0 0
0.000613079 0 0
0.000613079 0 0
0.000614057 0 0
0.000614057 0 0
0.000615035 0 0
0.000615035 0 0
0.000616012 0 0
0.000616012 0 0
0.00061699 0 0
0.00061699 0 0
0.000617967 0 0
0.000617967 0 0
0.000618944 0 0
0.000618944 0 0
0.00061992 0 0
0.00061992 0 0
0.000620897 0 0
0.000620897 0 0
0.000621873 0 0
0.000621873 0 0
0.000622849 0 0
0.000622849 0 0
0.000623825 0 0
0.000623825 0 0
0.0006248 0 0
0.0006248 0 0
0.000625775 0 0
0.000625775 0 0
0.00062675 0 0
0.00062675 0 0
0.000627725 0 0
0.000627725 0 0
0.000628699 0 0
0.000628699 0 0
0.000629674 0 0
0.000629674 0 0
0.000630648 0 0
0.000630648 0 0
0.000631621 0 0
0.000631621 0 0
0.000632595 0 0
0.000632595 0 0
0.000633568 0 0
0.000633568 0 0
0.000634541 0 0
0.000634541 0 0
0.000635514 0 0
0.000635514 0 0
0.000636487 0 0
0.000636487 0 0
0.000637459 0 0
0.000637459 0 0
0.000638431 0 0
0.000638431 0 0
0.000639403 0 0
0.000639403 0 0
0.000640375 0 0
0.000640375 0 0
0.000641346 0 0
0.000641346 0 0
0.000642317 0 0
0.000642317 0 0
0.000643288 0 0
0.000643288 0 0
0.000644259 0 0
0.000644259 0 0
0.000645229 0 0
0.000645229 0 0
0.0006462 0 0
0.0006462 0 0
0.00064717 0 0
0.00064717 0 0
0.000648139 0 0
0.000648139 0 0
0.000649109 0 0
0.000649109 0 0
0.000650078 0 0
0.000650078 0 0
0.000651047 0 0
0.000651047 0 0
0.000652016 0 0
0.000652016 0 0
0.000652985 0 0