# vtk DataFile Version 3.0
#This file was generated by the deal.II library on 2018/10/23 at 21:58:52
ASCII
DATASET UNSTRUCTURED_GRID

POINTS 6 double
0 0 0
0.0333333 0 0
0.0333333 0 0
0.0666667 0 0
0.0666667 0 0
0.1 0 0

CELLS 3 9
2	0	1
2	2	3
2	4	5

CELL_TYPES 3
 3 3 3
POINT_DATA 6
VECTORS u double
0 0 0
0.000355967 0 0
0.000355967 0 0
0.0006893 0 0
0.0006893 0 0
0.001 0 0
