# vtk DataFile Version 3.0
#This file was generated by the deal.II library on 2018/10/23 at 21:58:53
ASCII
DATASET UNSTRUCTURED_GRID

POINTS 2000 double
0 0 0
0.0001 0 0
0.0001 0 0
0.0002 0 0
0.0002 0 0
0.0003 0 0
0.0003 0 0
0.0004 0 0
0.0004 0 0
0.0005 0 0
0.0005 0 0
0.0006 0 0
0.0006 0 0
0.0007 0 0
0.0007 0 0
0.0008 0 0
0.0008 0 0
0.0009 0 0
0.0009 0 0
0.001 0 0
0.001 0 0
0.0011 0 0
0.0011 0 0
0.0012 0 0
0.0012 0 0
0.0013 0 0
0.0013 0 0
0.0014 0 0
0.0014 0 0
0.0015 0 0
0.0015 0 0
0.0016 0 0
0.0016 0 0
0.0017 0 0
0.0017 0 0
0.0018 0 0
0.0018 0 0
0.0019 0 0
0.0019 0 0
0.002 0 0
0.002 0 0
0.0021 0 0
0.0021 0 0
0.0022 0 0
0.0022 0 0
0.0023 0 0
0.0023 0 0
0.0024 0 0
0.0024 0 0
0.0025 0 0
0.0025 0 0
0.0026 0 0
0.0026 0 0
0.0027 0 0
0.0027 0 0
0.0028 0 0
0.0028 0 0
0.0029 0 0
0.0029 0 0
0.003 0 0
0.003 0 0
0.0031 0 0
0.0031 0 0
0.0032 0 0
0.0032 0 0
0.0033 0 0
0.0033 0 0
0.0034 0 0
0.0034 0 0
0.0035 0 0
0.0035 0 0
0.0036 0 0
0.0036 0 0
0.0037 0 0
0.0037 0 0
0.0038 0 0
0.0038 0 0
0.0039 0 0
0.0039 0 0
0.004 0 0
0.004 0 0
0.0041 0 0
0.0041 0 0
0.0042 0 0
0.0042 0 0
0.0043 0 0
0.0043 0 0
0.0044 0 0
0.0044 0 0
0.0045 0 0
0.0045 0 0
0.0046 0 0
0.0046 0 0
0.0047 0 0
0.0047 0 0
0.0048 0 0
0.0048 0 0
0.0049 0 0
0.0049 0 0
0.005 0 0
0.005 0 0
0.0051 0 0
0.0051 0 0
0.0052 0 0
0.0052 0 0
0.0053 0 0
0.0053 0 0
0.0054 0 0
0.0054 0 0
0.0055 0 0
0.0055 0 0
0.0056 0 0
0.0056 0 0
0.0057 0 0
0.0057 0 0
0.0058 0 0
0.0058 0 0
0.0059 0 0
0.0059 0 0
0.006 0 0
0.006 0 0
0.0061 0 0
0.0061 0 0
0.0062 0 0
0.0062 0 0
0.0063 0 0
0.0063 0 0
0.0064 0 0
0.0064 0 0
0.0065 0 0
0.0065 0 0
0.0066 0 0
0.0066 0 0
0.0067 0 0
0.0067 0 0
0.0068 0 0
0.0068 0 0
0.0069 0 0
0.0069 0 0
0.007 0 0
0.007 0 0
0.0071 0 0
0.0071 0 0
0.0072 0 0
0.0072 0 0
0.0073 0 0
0.0073 0 0
0.0074 0 0
0.0074 0 0
0.0075 0 0
0.0075 0 0
0.0076 0 0
0.0076 0 0
0.0077 0 0
0.0077 0 0
0.0078 0 0
0.0078 0 0
0.0079 0 0
0.0079 0 0
0.008 0 0
0.008 0 0
0.0081 0 0
0.0081 0 0
0.0082 0 0
0.0082 0 0
0.0083 0 0
0.0083 0 0
0.0084 0 0
0.0084 0 0
0.0085 0 0
0.0085 0 0
0.0086 0 0
0.0086 0 0
0.0087 0 0
0.0087 0 0
0.0088 0 0
0.0088 0 0
0.0089 0 0
0.0089 0 0
0.009 0 0
0.009 0 0
0.0091 0 0
0.0091 0 0
0.0092 0 0
0.0092 0 0
0.0093 0 0
0.0093 0 0
0.0094 0 0
0.0094 0 0
0.0095 0 0
0.0095 0 0
0.0096 0 0
0.0096 0 0
0.0097 0 0
0.0097 0 0
0.0098 0 0
0.0098 0 0
0.0099 0 0
0.0099 0 0
0.01 0 0
0.01 0 0
0.0101 0 0
0.0101 0 0
0.0102 0 0
0.0102 0 0
0.0103 0 0
0.0103 0 0
0.0104 0 0
0.0104 0 0
0.0105 0 0
0.0105 0 0
0.0106 0 0
0.0106 0 0
0.0107 0 0
0.0107 0 0
0.0108 0 0
0.0108 0 0
0.0109 0 0
0.0109 0 0
0.011 0 0
0.011 0 0
0.0111 0 0
0.0111 0 0
0.0112 0 0
0.0112 0 0
0.0113 0 0
0.0113 0 0
0.0114 0 0
0.0114 0 0
0.0115 0 0
0.0115 0 0
0.0116 0 0
0.0116 0 0
0.0117 0 0
0.0117 0 0
0.0118 0 0
0.0118 0 0
0.0119 0 0
0.0119 0 0
0.012 0 0
0.012 0 0
0.0121 0 0
0.0121 0 0
0.0122 0 0
0.0122 0 0
0.0123 0 0
0.0123 0 0
0.0124 0 0
0.0124 0 0
0.0125 0 0
0.0125 0 0
0.0126 0 0
0.0126 0 0
0.0127 0 0
0.0127 0 0
0.0128 0 0
0.0128 0 0
0.0129 0 0
0.0129 0 0
0.013 0 0
0.013 0 0
0.0131 0 0
0.0131 0 0
0.0132 0 0
0.0132 0 0
0.0133 0 0
0.0133 0 0
0.0134 0 0
0.0134 0 0
0.0135 0 0
0.0135 0 0
0.0136 0 0
0.0136 0 0
0.0137 0 0
0.0137 0 0
0.0138 0 0
0.0138 0 0
0.0139 0 0
0.0139 0 0
0.014 0 0
0.014 0 0
0.0141 0 0
0.0141 0 0
0.0142 0 0
0.0142 0 0
0.0143 0 0
0.0143 0 0
0.0144 0 0
0.0144 0 0
0.0145 0 0
0.0145 0 0
0.0146 0 0
0.0146 0 0
0.0147 0 0
0.0147 0 0
0.0148 0 0
0.0148 0 0
0.0149 0 0
0.0149 0 0
0.015 0 0
0.015 0 0
0.0151 0 0
0.0151 0 0
0.0152 0 0
0.0152 0 0
0.0153 0 0
0.0153 0 0
0.0154 0 0
0.0154 0 0
0.0155 0 0
0.0155 0 0
0.0156 0 0
0.0156 0 0
0.0157 0 0
0.0157 0 0
0.0158 0 0
0.0158 0 0
0.0159 0 0
0.0159 0 0
0.016 0 0
0.016 0 0
0.0161 0 0
0.0161 0 0
0.0162 0 0
0.0162 0 0
0.0163 0 0
0.0163 0 0
0.0164 0 0
0.0164 0 0
0.0165 0 0
0.0165 0 0
0.0166 0 0
0.0166 0 0
0.0167 0 0
0.0167 0 0
0.0168 0 0
0.0168 0 0
0.0169 0 0
0.0169 0 0
0.017 0 0
0.017 0 0
0.0171 0 0
0.0171 0 0
0.0172 0 0
0.0172 0 0
0.0173 0 0
0.0173 0 0
0.0174 0 0
0.0174 0 0
0.0175 0 0
0.0175 0 0
0.0176 0 0
0.0176 0 0
0.0177 0 0
0.0177 0 0
0.0178 0 0
0.0178 0 0
0.0179 0 0
0.0179 0 0
0.018 0 0
0.018 0 0
0.0181 0 0
0.0181 0 0
0.0182 0 0
0.0182 0 0
0.0183 0 0
0.0183 0 0
0.0184 0 0
0.0184 0 0
0.0185 0 0
0.0185 0 0
0.0186 0 0
0.0186 0 0
0.0187 0 0
0.0187 0 0
0.0188 0 0
0.0188 0 0
0.0189 0 0
0.0189 0 0
0.019 0 0
0.019 0 0
0.0191 0 0
0.0191 0 0
0.0192 0 0
0.0192 0 0
0.0193 0 0
0.0193 0 0
0.0194 0 0
0.0194 0 0
0.0195 0 0
0.0195 0 0
0.0196 0 0
0.0196 0 0
0.0197 0 0
0.0197 0 0
0.0198 0 0
0.0198 0 0
0.0199 0 0
0.0199 0 0
0.02 0 0
0.02 0 0
0.0201 0 0
0.0201 0 0
0.0202 0 0
0.0202 0 0
0.0203 0 0
0.0203 0 0
0.0204 0 0
0.0204 0 0
0.0205 0 0
0.0205 0 0
0.0206 0 0
0.0206 0 0
0.0207 0 0
0.0207 0 0
0.0208 0 0
0.0208 0 0
0.0209 0 0
0.0209 0 0
0.021 0 0
0.021 0 0
0.0211 0 0
0.0211 0 0
0.0212 0 0
0.0212 0 0
0.0213 0 0
0.0213 0 0
0.0214 0 0
0.0214 0 0
0.0215 0 0
0.0215 0 0
0.0216 0 0
0.0216 0 0
0.0217 0 0
0.0217 0 0
0.0218 0 0
0.0218 0 0
0.0219 0 0
0.0219 0 0
0.022 0 0
0.022 0 0
0.0221 0 0
0.0221 0 0
0.0222 0 0
0.0222 0 0
0.0223 0 0
0.0223 0 0
0.0224 0 0
0.0224 0 0
0.0225 0 0
0.0225 0 0
0.0226 0 0
0.0226 0 0
0.0227 0 0
0.0227 0 0
0.0228 0 0
0.0228 0 0
0.0229 0 0
0.0229 0 0
0.023 0 0
0.023 0 0
0.0231 0 0
0.0231 0 0
0.0232 0 0
0.0232 0 0
0.0233 0 0
0.0233 0 0
0.0234 0 0
0.0234 0 0
0.0235 0 0
0.0235 0 0
0.0236 0 0
0.0236 0 0
0.0237 0 0
0.0237 0 0
0.0238 0 0
0.0238 0 0
0.0239 0 0
0.0239 0 0
0.024 0 0
0.024 0 0
0.0241 0 0
0.0241 0 0
0.0242 0 0
0.0242 0 0
0.0243 0 0
0.0243 0 0
0.0244 0 0
0.0244 0 0
0.0245 0 0
0.0245 0 0
0.0246 0 0
0.0246 0 0
0.0247 0 0
0.0247 0 0
0.0248 0 0
0.0248 0 0
0.0249 0 0
0.0249 0 0
0.025 0 0
0.025 0 0
0.0251 0 0
0.0251 0 0
0.0252 0 0
0.0252 0 0
0.0253 0 0
0.0253 0 0
0.0254 0 0
0.0254 0 0
0.0255 0 0
0.0255 0 0
0.0256 0 0
0.0256 0 0
0.0257 0 0
0.0257 0 0
0.0258 0 0
0.0258 0 0
0.0259 0 0
0.0259 0 0
0.026 0 0
0.026 0 0
0.0261 0 0
0.0261 0 0
0.0262 0 0
0.0262 0 0
0.0263 0 0
0.0263 0 0
0.0264 0 0
0.0264 0 0
0.0265 0 0
0.0265 0 0
0.0266 0 0
0.0266 0 0
0.0267 0 0
0.0267 0 0
0.0268 0 0
0.0268 0 0
0.0269 0 0
0.0269 0 0
0.027 0 0
0.027 0 0
0.0271 0 0
0.0271 0 0
0.0272 0 0
0.0272 0 0
0.0273 0 0
0.0273 0 0
0.0274 0 0
0.0274 0 0
0.0275 0 0
0.0275 0 0
0.0276 0 0
0.0276 0 0
0.0277 0 0
0.0277 0 0
0.0278 0 0
0.0278 0 0
0.0279 0 0
0.0279 0 0
0.028 0 0
0.028 0 0
0.0281 0 0
0.0281 0 0
0.0282 0 0
0.0282 0 0
0.0283 0 0
0.0283 0 0
0.0284 0 0
0.0284 0 0
0.0285 0 0
0.0285 0 0
0.0286 0 0
0.0286 0 0
0.0287 0 0
0.0287 0 0
0.0288 0 0
0.0288 0 0
0.0289 0 0
0.0289 0 0
0.029 0 0
0.029 0 0
0.0291 0 0
0.0291 0 0
0.0292 0 0
0.0292 0 0
0.0293 0 0
0.0293 0 0
0.0294 0 0
0.0294 0 0
0.0295 0 0
0.0295 0 0
0.0296 0 0
0.0296 0 0
0.0297 0 0
0.0297 0 0
0.0298 0 0
0.0298 0 0
0.0299 0 0
0.0299 0 0
0.03 0 0
0.03 0 0
0.0301 0 0
0.0301 0 0
0.0302 0 0
0.0302 0 0
0.0303 0 0
0.0303 0 0
0.0304 0 0
0.0304 0 0
0.0305 0 0
0.0305 0 0
0.0306 0 0
0.0306 0 0
0.0307 0 0
0.0307 0 0
0.0308 0 0
0.0308 0 0
0.0309 0 0
0.0309 0 0
0.031 0 0
0.031 0 0
0.0311 0 0
0.0311 0 0
0.0312 0 0
0.0312 0 0
0.0313 0 0
0.0313 0 0
0.0314 0 0
0.0314 0 0
0.0315 0 0
0.0315 0 0
0.0316 0 0
0.0316 0 0
0.0317 0 0
0.0317 0 0
0.0318 0 0
0.0318 0 0
0.0319 0 0
0.0319 0 0
0.032 0 0
0.032 0 0
0.0321 0 0
0.0321 0 0
0.0322 0 0
0.0322 0 0
0.0323 0 0
0.0323 0 0
0.0324 0 0
0.0324 0 0
0.0325 0 0
0.0325 0 0
0.0326 0 0
0.0326 0 0
0.0327 0 0
0.0327 0 0
0.0328 0 0
0.0328 0 0
0.0329 0 0
0.0329 0 0
0.033 0 0
0.033 0 0
0.0331 0 0
0.0331 0 0
0.0332 0 0
0.0332 0 0
0.0333 0 0
0.0333 0 0
0.0334 0 0
0.0334 0 0
0.0335 0 0
0.0335 0 0
0.0336 0 0
0.0336 0 0
0.0337 0 0
0.0337 0 0
0.0338 0 0
0.0338 0 0
0.0339 0 0
0.0339 0 0
0.034 0 0
0.034 0 0
0.0341 0 0
0.0341 0 0
0.0342 0 0
0.0342 0 0
0.0343 0 0
0.0343 0 0
0.0344 0 0
0.0344 0 0
0.0345 0 0
0.0345 0 0
0.0346 0 0
0.0346 0 0
0.0347 0 0
0.0347 0 0
0.0348 0 0
0.0348 0 0
0.0349 0 0
0.0349 0 0
0.035 0 0
0.035 0 0
0.0351 0 0
0.0351 0 0
0.0352 0 0
0.0352 0 0
0.0353 0 0
0.0353 0 0
0.0354 0 0
0.0354 0 0
0.0355 0 0
0.0355 0 0
0.0356 0 0
0.0356 0 0
0.0357 0 0
0.0357 0 0
0.0358 0 0
0.0358 0 0
0.0359 0 0
0.0359 0 0
0.036 0 0
0.036 0 0
0.0361 0 0
0.0361 0 0
0.0362 0 0
0.0362 0 0
0.0363 0 0
0.0363 0 0
0.0364 0 0
0.0364 0 0
0.0365 0 0
0.0365 0 0
0.0366 0 0
0.0366 0 0
0.0367 0 0
0.0367 0 0
0.0368 0 0
0.0368 0 0
0.0369 0 0
0.0369 0 0
0.037 0 0
0.037 0 0
0.0371 0 0
0.0371 0 0
0.0372 0 0
0.0372 0 0
0.0373 0 0
0.0373 0 0
0.0374 0 0
0.0374 0 0
0.0375 0 0
0.0375 0 0
0.0376 0 0
0.0376 0 0
0.0377 0 0
0.0377 0 0
0.0378 0 0
0.0378 0 0
0.0379 0 0
0.0379 0 0
0.038 0 0
0.038 0 0
0.0381 0 0
0.0381 0 0
0.0382 0 0
0.0382 0 0
0.0383 0 0
0.0383 0 0
0.0384 0 0
0.0384 0 0
0.0385 0 0
0.0385 0 0
0.0386 0 0
0.0386 0 0
0.0387 0 0
0.0387 0 0
0.0388 0 0
0.0388 0 0
0.0389 0 0
0.0389 0 0
0.039 0 0
0.039 0 0
0.0391 0 0
0.0391 0 0
0.0392 0 0
0.0392 0 0
0.0393 0 0
0.0393 0 0
0.0394 0 0
0.0394 0 0
0.0395 0 0
0.0395 0 0
0.0396 0 0
0.0396 0 0
0.0397 0 0
0.0397 0 0
0.0398 0 0
0.0398 0 0
0.0399 0 0
0.0399 0 0
0.04 0 0
0.04 0 0
0.0401 0 0
0.0401 0 0
0.0402 0 0
0.0402 0 0
0.0403 0 0
0.0403 0 0
0.0404 0 0
0.0404 0 0
0.0405 0 0
0.0405 0 0
0.0406 0 0
0.0406 0 0
0.0407 0 0
0.0407 0 0
0.0408 0 0
0.0408 0 0
0.0409 0 0
0.0409 0 0
0.041 0 0
0.041 0 0
0.0411 0 0
0.0411 0 0
0.0412 0 0
0.0412 0 0
0.0413 0 0
0.0413 0 0
0.0414 0 0
0.0414 0 0
0.0415 0 0
0.0415 0 0
0.0416 0 0
0.0416 0 0
0.0417 0 0
0.0417 0 0
0.0418 0 0
0.0418 0 0
0.0419 0 0
0.0419 0 0
0.042 0 0
0.042 0 0
0.0421 0 0
0.0421 0 0
0.0422 0 0
0.0422 0 0
0.0423 0 0
0.0423 0 0
0.0424 0 0
0.0424 0 0
0.0425 0 0
0.0425 0 0
0.0426 0 0
0.0426 0 0
0.0427 0 0
0.0427 0 0
0.0428 0 0
0.0428 0 0
0.0429 0 0
0.0429 0 0
0.043 0 0
0.043 0 0
0.0431 0 0
0.0431 0 0
0.0432 0 0
0.0432 0 0
0.0433 0 0
0.0433 0 0
0.0434 0 0
0.0434 0 0
0.0435 0 0
0.0435 0 0
0.0436 0 0
0.0436 0 0
0.0437 0 0
0.0437 0 0
0.0438 0 0
0.0438 0 0
0.0439 0 0
0.0439 0 0
0.044 0 0
0.044 0 0
0.0441 0 0
0.0441 0 0
0.0442 0 0
0.0442 0 0
0.0443 0 0
0.0443 0 0
0.0444 0 0
0.0444 0 0
0.0445 0 0
0.0445 0 0
0.0446 0 0
0.0446 0 0
0.0447 0 0
0.0447 0 0
0.0448 0 0
0.0448 0 0
0.0449 0 0
0.0449 0 0
0.045 0 0
0.045 0 0
0.0451 0 0
0.0451 0 0
0.0452 0 0
[...]
POINT_DATA 2000
VECTORS u double
0 0 0
1.16667e-06 0 0
1.16667e-06 0 0
2.33333e-06 0 0
2.33333e-06 0 0
3.5e-06 0 0
3.5e-06 0 0
4.66666e-06 0 0
4.66666e-06 0 0
5.83331e-06 0 0
5.83331e-06 0 0
6.99996e-06 0 0
6.99996e-06 0 0
8.16661e-06 0 0
8.16661e-06 0 0
9.33325e-06 0 0
9.33325e-06 0 0
1.04999e-05 0 0
1.04999e-05 0 0
1.16665e-05 0 0
1.16665e-05 0 0
1.28331e-05 0 0
1.28331e-05 0 0
1.39997e-05 0 0
1.39997e-05 0 0
1.51663e-05 0 0
1.51663e-05 0 0
1.63329e-05 0 0
1.63329e-05 0 0
1.74994e-05 0 0
1.74994e-05 0 0
1.8666e-05 0 0
1.8666e-05 0 0
1.98325e-05 0 0
1.98325e-05 0 0
2.0999e-05 0 0
2.0999e-05 0 0
2.21655e-05 0 0
2.21655e-05 0 0
2.3332e-05 0 0
2.3332e-05 0 0
2.44985e-05 0 0
2.44985e-05 0 0
2.56649e-05 0 0
2.56649e-05 0 0
2.68313e-05 0 0
2.68313e-05 0 0
2.79977e-05 0 0
2.79977e-05 0 0
2.91641e-05 0 0
2.91641e-05 0 0
3.03304e-05 0 0
3.03304e-05 0 0
3.14967e-05 0 0
3.14967e-05 0 0
3.2663e-05 0 0
3.2663e-05 0 0
3.38293e-05 0 0
3.38293e-05 0 0
3.49955e-05 0 0
3.49955e-05 0 0
3.61617e-05 0 0
3.61617e-05 0 0
3.73279e-05 0 0
3.73279e-05 0 0
3.8494e-05 0 0
3.8494e-05 0 0
3.96601e-05 0 0
3.96601e-05 0 0
4.08262e-05 0 0
4.08262e-05 0 0
4.19922e-05 0 0
4.19922e-05 0 0
4.31582e-05 0 0
4.31582e-05 0 0
4.43242e-05 0 0
4.43242e-05 0 0
4.54901e-05 0 0
4.54901e-05 0 0
4.6656e-05 0 0
4.6656e-05 0 0
4.78218e-05 0 0
4.78218e-05 0 0
4.89877e-05 0 0
4.89877e-05 0 0
5.01534e-05 0 0
5.01534e-05 0 0
5.13191e-05 0 0
5.13191e-05 0 0
5.24848e-05 0 0
5.24848e-05 0 0
5.36504e-05 0 0
5.36504e-05 0 0
5.4816e-05 0 0
5.4816e-05 0 0
5.59816e-05 0 0
5.59816e-05 0 0
5.71471e-05 0 0
5.71471e-05 0 0
5.83125e-05 0 0
5.83125e-05 0 0
5.94779e-05 0 0
5.94779e-05 0 0
6.06432e-05 0 0
6.06432e-05 0 0
6.18085e-05 0 0
6.18085e-05 0 0
6.29738e-05 0 0
6.29738e-05 0 0
6.41389e-05 0 0
6.41389e-05 0 0
6.53041e-05 0 0
6.53041e-05 0 0
6.64691e-05 0 0
6.64691e-05 0 0
6.76342e-05 0 0
6.76342e-05 0 0
6.87991e-05 0 0
6.87991e-05 0 0
6.9964e-05 0 0
6.9964e-05 0 0
7.11288e-05 0 0
7.11288e-05 0 0
7.22936e-05 0 0
7.22936e-05 0 0
7.34583e-05 0 0
7.34583e-05 0 0
7.4623e-05 0 0
7.4623e-05 0 0
7.57876e-05 0 0
7.57876e-05 0 0
7.69521e-05 0 0
7.69521e-05 0 0
7.81165e-05 0 0
7.81165e-05 0 0
7.92809e-05 0 0
7.92809e-05 0 0
8.04453e-05 0 0
8.04453e-05 0 0
8.16095e-05 0 0
8.16095e-05 0 0
8.27737e-05 0 0
8.27737e-05 0 0
8.39378e-05 0 0
8.39378e-05 0 0
8.51018e-05 0 0
8.51018e-05 0 0
8.62658e-05 0 0
8.62658e-05 0 0
8.74297e-05 0 0
8.74297e-05 0 0
8.85935e-05 0 0
8.85935e-05 0 0
8.97572e-05 0 0
8.97572e-05 0 0
9.09209e-05 0 0
9.09209e-05 0 0
9.20845e-05 0 0
9.20845e-05 0 0
9.3248e-05 0 0
9.3248e-05 0 0
9.44114e-05 0 0
9.44114e-05 0 0
9.55748e-05 0 0
9.55748e-05 0 0
9.6738e-05 0 0
9.6738e-05 0 0
9.79012e-05 0 0
9.79012e-05 0 0
9.90643e-05 0 0
9.90643e-05 0 0
0.000100227 0 0
0.000100227 0 0
0.00010139 0 0
0.00010139 0 0
0.000102553 0 0
0.000102553 0 0
0.000103716 0 0
0.000103716 0 0
0.000104878 0 0
0.000104878 0 0
0.000106041 0 0
0.000106041 0 0
0.000107204 0 0
0.000107204 0 0
0.000108366 0 0
0.000108366 0 0
0.000109528 0 0
0.000109528 0 0
0.00011069 0 0
0.00011069 0 0
0.000111853 0 0
0.000111853 0 0
0.000113015 0 0
0.000113015 0 0
0.000114176 0 0
0.000114176 0 0
0.000115338 0 0
0.000115338 0 0
0.0001165 0 0
0.0001165 0 0
0.000117662 0 0
0.000117662 0 0
0.000118823 0 0
0.000118823 0 0
0.000119985 0 0
0.000119985 0 0
0.000121146 0 0
0.000121146 0 0
0.000122307 0 0
0.000122307 0 0
0.000123468 0 0
0.000123468 0 0
0.000124629 0 0
0.000124629 0 0
0.00012579 0 0
0.00012579 0 0
0.000126951 0 0
0.000126951 0 0
0.000128111 0 0
0.000128111 0 0
0.000129272 0 0
0.000129272 0 0
0.000130433 0 0
0.000130433 0 0
0.000131593 0 0
0.000131593 0 0
0.000132753 0 0
0.000132753 0 0
0.000133913 0 0
0.000133913 0 0
0.000135073 0 0
0.000135073 0 0
0.000136233 0 0
0.000136233 0 0
0.000137393 0 0
0.000137393 0 0
0.000138552 0 0
0.000138552 0 0
0.000139712 0 0
0.000139712 0 0
0.000140871 0 0
0.000140871 0 0
0.000142031 0 0
0.000142031 0 0
0.00014319 0 0
0.00014319 0 0
0.000144349 0 0
0.000144349 0 0
0.000145508 0 0
0.000145508 0 0
0.000146667 0 0
0.000146667 0 0
0.000147825 0 0
0.000147825 0 0
0.000148984 0 0
0.000148984 0 0
0.000150142 0 0
0.000150142 0 0
0.0001513 0 0
0.0001513 0 0
0.000152459 0 0
0.000152459 0 0
0.000153617 0 0
0.000153617 0 0
0.000154775 0 0
0.000154775 0 0
0.000155932 0 0
0.000155932 0 0
0.00015709 0 0
0.00015709 0 0
0.000158247 0 0
0.000158247 0 0
0.000159405 0 0
0.000159405 0 0
0.000160562 0 0
0.000160562 0 0
0.000161719 0 0
0.000161719 0 0
0.000162876 0 0
0.000162876 0 0
0.000164033 0 0
0.000164033 0 0
0.000165189 0 0
0.000165189 0 0
0.000166346 0 0
0.000166346 0 0
0.000167502 0 0
0.000167502 0 0
0.000168659 0 0
0.000168659 0 0
0.000169815 0 0
0.000169815 0 0
0.000170971 0 0
0.000170971 0 0
0.000172126 0 0
0.000172126 0 0
0.000173282 0 0
0.000173282 0 0
0.000174438 0 0
0.000174438 0 0
0.000175593 0 0
0.000175593 0 0
0.000176748 0 0
0.000176748 0 0
0.000177903 0 0
0.000177903 0 0
0.000179058 0 0
0.000179058 0 0
0.000180213 0 0
0.000180213 0 0
0.000181367 0 0
0.000181367 0 0
0.000182522 0 0
0.000182522 0 0
0.000183676 0 0
0.000183676 0 0
0.00018483 0 0
0.00018483 0 0
0.000185984 0 0
0.000185984 0 0
0.000187138 0 0
0.000187138 0 0
0.000188291 0 0
0.000188291 0 0
0.000189445 0 0
0.000189445 0 0
0.000190598 0 0
0.000190598 0 0
0.000191751 0 0
0.000191751 0 0
0.000192904 0 0
0.000192904 0 0
0.000194057 0 0
0.000194057 0 0
0.00019521 0 0
0.00019521 0 0
0.000196362 0 0
0.000196362 0 0
0.000197514 0 0
0.000197514 0 0
0.000198667 0 0
0.000198667 0 0
0.000199819 0 0
0.000199819 0 0
0.00020097 0 0
0.00020097 0 0
0.000202122 0 0
0.000202122 0 0
0.000203273 0 0
0.000203273 0 0
0.000204425 0 0
0.000204425 0 0
0.000205576 0 0
0.000205576 0 0
0.000206727 0 0
0.000206727 0 0
0.000207877 0 0
0.000207877 0 0
0.000209028 0 0
0.000209028 0 0
0.000210178 0 0
0.000210178 0 0
0.000211329 0 0
0.000211329 0 0
0.000212479 0 0
0.000212479 0 0
0.000213628 0 0
0.000213628 0 0
0.000214778 0 0
0.000214778 0 0
0.000215928 0 0
0.000215928 0 0
0.000217077 0 0
0.000217077 0 0
0.000218226 0 0
0.000218226 0 0
0.000219375 0 0
0.000219375 0 0
0.000220524 0 0
0.000220524 0 0
0.000221672 0 0
0.000221672 0 0
0.00022282 0 0
0.00022282 0 0
0.000223968 0 0
0.000223968 0 0
0.000225116 0 0
0.000225116 0 0
0.000226264 0 0
0.000226264 0 0
0.000227412 0 0
0.000227412 0 0
0.000228559 0 0
0.000228559 0 0
0.000229706 0 0
0.000229706 0 0
0.000230853 0 0
0.000230853 0 0
0.000232 0 0
0.000232 0 0
0.000233147 0 0
0.000233147 0 0
0.000234293 0 0
0.000234293 0 0
0.000235439 0 0
0.000235439 0 0
0.000236585 0 0
0.000236585 0 0
0.000237731 0 0
0.000237731 0 0
0.000238876 0 0
0.000238876 0 0
0.000240022 0 0
0.000240022 0 0
0.000241167 0 0
0.000241167 0 0
0.000242312 0 0
0.000242312 0 0
0.000243456 0 0
0.000243456 0 0
0.000244601 0 0
0.000244601 0 0
0.000245745 0 0
0.000245745 0 0
0.000246889 0 0
0.000246889 0 0
0.000248033 0 0
0.000248033 0 0
0.000249177 0 0
0.000249177 0 0
0.00025032 0 0
0.00025032 0 0
0.000251464 0 0
0.000251464 0 0
0.000252607 0 0
0.000252607 0 0
0.000253749 0 0
0.000253749 0 0
0.000254892 0 0
0.000254892 0 0
0.000256034 0 0
0.000256034 0 0
0.000257176 0 0
0.000257176 0 0
0.000258318 0 0
0.000258318 0 0
0.00025946 0 0
0.00025946 0 0
0.000260602 0 0
0.000260602 0 0
0.000261743 0 0
0.000261743 0 0
0.000262884 0 0
0.000262884 0 0
0.000264025 0 0
0.000264025 0 0
0.000265165 0 0
0.000265165 0 0
0.000266305 0 0
0.000266305 0 0
0.000267446 0 0
0.000267446 0 0
0.000268585 0 0
0.000268585 0 0
0.000269725 0 0
0.000269725 0 0
0.000270865 0 0
0.000270865 0 0
0.000272004 0 0
0.000272004 0 0
0.000273143 0 0
0.000273143 0 0
0.000274281 0 0
0.000274281 0 0
0.00027542 0 0
0.00027542 0 0
0.000276558 0 0
0.000276558 0 0
0.000277696 0 0
0.000277696 0 0
0.000278834 0 0
0.000278834 0 0
0.000279971 0 0
0.000279971 0 0
0.000281109 0 0
0.000281109 0 0
0.000282246 0 0
0.000282246 0 0
0.000283382 0 0
0.000283382 0 0
0.000284519 0 0
0.000284519 0 0
0.000285655 0 0
0.000285655 0 0
0.000286791 0 0
0.000286791 0 0
0.000287927 0 0
0.000287927 0 0
0.000289063 0 0
0.000289063 0 0
0.000290198 0 0
0.000290198 0 0
0.000291333 0 0
0.000291333 0 0
0.000292468 0 0
0.000292468 0 0
0.000293602 0 0
0.000293602 0 0
0.000294736 0 0
0.000294736 0 0
0.00029587 0 0
0.00029587 0 0
0.000297004 0 0
0.000297004 0 0
0.000298138 0 0
0.000298138 0 0
0.000299271 0 0
0.000299271 0 0
0.000300404 0 0
0.000300404 0 0
0.000301537 0 0
0.000301537 0 0
0.000302669 0 0
0.000302669 0 0
0.000303801 0 0
0.000303801 0 0
0.000304933 0 0
0.000304933 0 0
0.000306065 0 0
0.000306065 0 0
0.000307196 0 0
0.000307196 0 0
0.000308328 0 0
0.000308328 0 0
0.000309459 0 0
0.000309459 0 0
0.000310589 0 0
0.000310589 0 0
0.000311719 0 0
0.000311719 0 0
0.00031285 0 0
0.00031285 0 0
0.000313979 0 0
0.000313979 0 0
0.000315109 0 0
0.000315109 0 0
0.000316238 0 0
0.000316238 0 0
0.000317367 0 0
0.000317367 0 0
0.000318496 0 0
0.000318496 0 0
0.000319624 0 0
0.000319624 0 0
0.000320753 0 0
0.000320753 0 0
0.00032188 0 0
0.00032188 0 0
0.000323008 0 0
0.000323008 0 0
0.000324135 0 0
0.000324135 0 0
0.000325262 0 0
0.000325262 0 0
0.000326389 0 0
0.000326389 0 0
0.000327516 0 0
0.000327516 0 0
0.000328642 0 0
0.000328642 0 0
0.000329768 0 0
0.000329768 0 0
0.000330893 0 0
0.000330893 0 0
0.000332019 0 0
0.000332019 0 0
0.000333144 0 0
0.000333144 0 0
0.000334268 0 0
0.000334268 0 0
0.000335393 0 0
0.000335393 0 0
0.000336517 0 0
0.000336517 0 0
0.000337641 0 0
0.000337641 0 0
0.000338765 0 0
0.000338765 0 0
0.000339888 0 0
0.000339888 0 0
0.000341011 0 0
0.000341011 0 0
0.000342134 0 0
0.000342134 0 0
0.000343256 0 0
0.000343256 0 0
0.000344378 0 0
0.000344378 0 0
0.0003455 0 0
0.0003455 0 0
0.000346622 0 0
0.000346622 0 0
0.000347743 0 0
0.000347743 0 0
0.000348864 0 0
0.000348864 0 0
0.000349984 0 0
0.000349984 0 0
0.000351105 0 0
0.000351105 0 0
0.000352225 0 0
0.000352225 0 0
0.000353344 0 0
0.000353344 0 0
0.000354464 0 0
0.000354464 0 0
0.000355583 0 0
0.000355583 0 0
0.000356701 0 0
0.000356701 0 0
0.00035782 0 0
0.00035782 0 0
0.000358938 0 0
0.000358938 0 0
0.000360056 0 0
0.000360056 0 0
0.000361173 0 0
0.000361173 0 0
0.000362291 0 0
0.000362291 0 0
0.000363408 0 0
0.000363408 0 0
0.000364524 0 0
0.000364524 0 0
0.00036564 0 0
0.00036564 0 0
0.000366756 0 0
0.000366756 0 0
0.000367872 0 0
0.000367872 0 0
0.000368987 0 0
0.000368987 0 0
0.000370102 0 0
0.000370102 0 0
0.000371217 0 0
0.000371217 0 0
0.000372331 0 0
0.000372331 0 0
0.000373445 0 0
0.000373445 0 0
0.000374559 0 0
0.000374559 0 0
0.000375672 0 0
0.000375672 0 0
0.000376785 0 0
0.000376785 0 0
0.000377898 0 0
0.000377898 0 0
0.000379011 0 0
0.000379011 0 0
0.000380123 0 0
0.000380123 0 0
0.000381234 0 0
0.000381234 0 0
0.000382346 0 0
0.000382346 0 0
0.000383457 0 0
0.000383457 0 0
0.000384567 0 0
0.000384567 0 0
0.000385678 0 0
0.000385678 0 0
0.000386788 0 0
0.000386788 0 0
0.000387898 0 0
0.000387898 0 0
0.000389007 0 0
0.000389007 0 0
0.000390116 0 0
0.000390116 0 0
0.000391225 0 0
0.000391225 0 0
0.000392333 0 0
0.000392333 0 0
0.000393441 0 0
0.000393441 0 0
0.000394549 0 0
0.000394549 0 0
0.000395656 0 0
0.000395656 0 0
0.000396763 0 0
0.000396763 0 0
0.00039787 0 0
0.00039787 0 0
0.000398976 0 0
0.000398976 0 0
0.000400082 0 0
0.000400082 0 0
0.000401188 0 0
0.000401188 0 0
0.000402293 0 0
0.000402293 0 0
0.000403398 0 0
0.000403398 0 0
0.000404502 0 0
0.000404502 0 0
0.000405606 0 0
0.000405606 0 0
0.00040671 0 0
0.00040671 0 0
0.000407814 0 0
0.000407814 0 0
0.000408917 0 0
0.000408917 0 0
0.00041002 0 0
0.00041002 0 0
0.000411122 0 0
0.000411122 0 0
0.000412224 0 0
0.000412224 0 0
0.000413326 0 0
0.000413326 0 0
0.000414427 0 0
0.000414427 0 0
0.000415528 0 0
0.000415528 0 0
0.000416629 0 0
0.000416629 0 0
0.000417729 0 0
0.000417729 0 0
0.000418829 0 0
0.000418829 0 0
0.000419928 0 0
0.000419928 0 0
0.000421027 0 0
0.000421027 0 0
0.000422126 0 0
0.000422126 0 0
0.000423224 0 0
0.000423224 0 0
0.000424323 0 0
0.000424323 0 0
0.00042542 0 0
0.00042542 0 0
0.000426517 0 0
0.000426517 0 0
0.000427614 0 0
0.000427614 0 0
0.000428711 0 0
0.000428711 0 0
0.000429807 0 0
0.000429807 0 0
0.000430903 0 0
0.000430903 0 0
0.000431998 0 0
0.000431998 0 0
0.000433093 0 0
0.000433093 0 0
0.000434188 0 0
0.000434188 0 0
0.000435282 0 0
0.000435282 0 0
0.000436376 0 0
0.000436376 0 0
0.00043747 0 0
0.00043747 0 0
0.000438563 0 0
0.000438563 0 0
0.000439656 0 0
0.000439656 0 0
0.000440748 0 0
0.000440748 0 0
0.00044184 0 0
0.00044184 0 0
0.000442931 0 0
0.000442931 0 0
0.000444023 0 0
0.000444023 0 0
0.000445113 0 0
0.000445113 0 0
0.000446204 0 0
0.000446204 0 0
0.000447294 0 0
0.000447294 0 0
0.000448384 0 0
0.000448384 0 0
0.000449473 0 0
0.000449473 0 0
0.000450562 0 0
0.000450562 0 0
0.00045165 0 0
0.00045165 0 0
0.000452738 0 0
0.000452738 0 0
0.000453826 0 0
0.000453826 0 0
0.000454913 0 0
0.000454913 0 0
0.000456 0 0
0.000456 0 0
0.000457086 0 0
0.000457086 0 0
0.000458173 0 0
0.000458173 0 0
0.000459258 0 0
0.000459258 0 0
0.000460343 0 0
0.000460343 0 0
0.000461428 0 0
0.000461428 0 0
0.000462513 0 0
0.000462513 0 0
0.000463597 0 0
0.000463597 0 0
0.00046468 0 0
0.00046468 0 0
0.000465764 0 0
0.000465764 0 0
0.000466847 0 0
0.000466847 0 0
0.000467929 0 0
0.000467929 0 0
0.000469011 0 0
0.000469011 0 0
0.000470092 0 0
0.000470092 0 0
0.000471174 0 0
0.000471174 0 0
0.000472254 0 0
0.000472254 0 0
0.000473335 0 0
0.000473335 0 0
0.000474415 0 0
0.000474415 0 0
0.000475494 0 0
0.000475494 0 0
0.000476573 0 0
0.000476573 0 0
0.000477652 0 0
0.000477652 0 0
0.00047873 0 0
0.00047873 0 0
0.000479808 0 0
0.000479808 0 0
0.000480886 0 0
0.000480886 0 0
0.000481962 0 0
0.000481962 0 0
0.000483039 0 0
0.000483039 0 0
0.000484115 0 0
0.000484115 0 0
0.000485191 0 0
0.000485191 0 0
0.000486266 0 0
0.000486266 0 0
0.000487341 0 0
0.000487341 0 0
0.000488415 0 0
0.000488415 0 0
0.00048949 0 0
0.00048949 0 0
0.000490563 0 0
0.000490563 0 0
0.000491636 0 0
0.000491636 0 0
0.000492709 0 0
0.000492709 0 0
0.000493781 0 0
0.000493781 0 0
0.000494853 0 0
0.000494853 0 0
0.000495924 0 0
0.000495924 0 0
0.000496995 0 0
0.000496995 0 0
0.000498066 0 0
0.000498066 0 0
0.000499136 0 0
0.000499136 0 0
0.000500206 0 0
0.000500206 0 0
0.000501275 0 0
0.000501275 0 0
0.000502344 0 0
0.000502344 0 0
0.000503412 0 0
0.000503412 0 0
0.00050448 0 0
0.00050448 0 0
0.000505547 0 0
0.000505547 0 0
0.000506614 0 0
0.000506614 0 0
0.000507681 0 0
0.000507681 0 0
0.000508747 0 0
0.000508747 0 0
0.000509812 0 0
0.000509812 0 0
0.000510878 0 0
0.000510878 0 0
0.000511942 0 0
0.000511942 0 0
0.000513007 0 0
0.000513007 0 0
0.000514071 0 0
0.000514071 0 0
0.000515134 0 0
0.000515134 0 0
0.000516197 0 0
0.000516197 0 0
0.000517259 0 0
0.000517259 0 0
0.000518321 0 0
0.000518321 0 0
0.000519383 0 0
0.000519383 0 0
0.000520444 0 0
0.000520444 0 0
0.000521505 0 0
0.000521505 0 0
0.000522565 0 0
0.000522565 0 0
0.000523625 0 0
0.000523625 0 0
0.000524684 0 0
0.000524684 0 0
0.000525743 0 0
0.000525743 0 0
0.000526801 0 0
0.000526801 0 0
0.000527859 0 0
0.000527859 0 0
0.000528916 0 0
0.000528916 0 0
0.000529973 0 0
0.000529973 0 0
0.000531029 0 0
0.000531029 0 0
0.000532085 0 0
0.000532085 0 0
0.000533141 0 0
0.000533141 0 0
0.000534196 0 0
0.000534196 0 0
0.000535251 0 0
0.000535251 0 0
0.000536305 0 0
0.000536305 0 0
0.000537358 0 0
0.000537358 0 0
0.000538411 0 0
0.000538411 0 0
0.000539464 0 0
0.000539464 0 0
0.000540516 0 0
0.000540516 0 0
0.000541568 0 0
0.000541568 0 0
0.000542619 0 0
0.000542619 0 0
0.00054367 0 0
0.00054367 0 0
0.00054472 0 0
0.00054472 0 0
0.00054577 0 0
0.00054577 0 0
0.000546819 0 0
0.000546819 0 0
0.000547868 0 0
0.000547868 0 0
0.000548916 0 0
0.000548916 0 0
0.000549964 0 0
0.000549964 0 0
0.000551012 0 0
0.000551012 0 0
0.000552059 0 0
0.000552059 0 0
0.000553105 0 0
0.000553105 0 0
0.000554151 0 0
0.000554151 0 0
0.000555196 0 0
0.000555196 0 0
0.000556241 0 0
0.000556241 0 0
0.000557285 0 0
0.000557285 0 0
0.000558329 0 0
0.000558329 0 0
0.000559373 0 0
0.000559373 0 0
0.000560416 0 0
0.000560416 0 0
0.000561458 0 0
0.000561458 0 0
0.0005625 0 0
0.0005625 0 0
0.000563541 0 0
0.000563541 0 0
0.000564582 0 0
0.000564582 0 0
0.000565623 0 0
0.000565623 0 0
0.000566663 0 0
0.000566663 0 0
0.000567702 0 0
0.000567702 0 0
0.000568741 0 0
0.000568741 0 0
0.000569779 0 0
0.000569779 0 0
0.000570817 0 0
0.000570817 0 0
0.000571855 0 0
0.000571855 0 0
0.000572891 0 0
0.000572891 0 0
0.000573928 0 0
0.000573928 0 0
0.000574964 0 0
0.000574964 0 0
0.000575999 0 0
0.000575999 0 0
0.000577034 0 0
0.000577034 0 0
0.000578068 0 0
0.000578068 0 0
0.000579102 0 0
0.000579102 0 0
0.000580135 0 0
0.000580135 0 0
0.000581168 0 0
0.000581168 0 0
0.0005822 0 0
0.0005822 0 0
0.000583232 0 0
0.000583232 0 0
0.000584263 0 0
0.000584263 0 0
0.000585294 0 0
0.000585294 0 0
0.000586324 0 0
0.000586324 0 0
0.000587354 0 0
0.000587354 0 0
0.000588383 0 0
0.000588383 0 0
0.000589411 0 0
0.000589411 0 0
0.000590439 0 0
0.000590439 0 0
0.000591467 0 0
0.000591467 0 0
0.000592494 0 0
0.000592494 0 0
0.000593521 0 0
0.000593521 0 0
0.000594546 0 0
0.000594546 0 0
0.000595572 0 0
0.000595572 0 0
0.000596597 0 0
0.000596597 0 0
0.000597621 0 0
0.000597621 0 0
0.000598645 0 0
0.000598645 0 0
0.000599668 0 0
0.000599668 0 0
0.000600691 0 0
0.000600691 0 0
0.000601713 0 0
0.000601713 0 0
0.000602735 0 0
0.000602735 0 0
0.000603756 0 0
0.000603756 0 0
0.000604777 0 0
0.000604777 0 0
0.000605797 0 0
0.000605797 0 0
0.000606816 0 0
0.000606816 0 0
0.000607835 0 0
0.000607835 0 0
0.000608854 0 0
0.000608854 0 0
0.000609871 0 0
0.000609871 0 0
0.000610889 0 0
0.000610889 0 0
0.000611906 0 0
0.000611906 0 0
0.000612922 0 0
0.000612922 0 0
0.000613938 0 0
0.000613938 0 0
0.000614953 0 0
0.000614953 0 0
0.000615967 0 0
0.000615967 0 0
0.000616981 0 0
0.000616981 0 0
0.000617995 0 0
0.000617995 0 0
0.000619008 0 0
0.000619008 0 0
0.00062002 0 0
0.00062002 0 0
0.000621032 0 0
0.000621032 0 0
0.000622043 0 0
0.000622043 0 0
0.000623054 0 0
0.000623054 0 0
0.000624064 0 0
0.000624064 0 0
0.000625074 0 0
0.000625074 0 0
0.000626083 0 0
0.000626083 0 0
0.000627091 0 0
0.000627091 0 0
0.000628099 0 0
0.000628099 0 0
0.000629106 0 0
0.000629106 0 0
0.000630113 0 0
0.000630113 0 0
0.000631119 0 0
0.000631119 0 0
0.000632125 0 0
0.000632125 0 0
0.00063313 0 0
0.00063313 0 0
0.000634135 0 0
0.000634135 0 0
0.000635138 0 0
0.000635138 0 0
0.000636142 0 0
0.000636142 0 0
0.000637145 0 0
0.000637145 0 0
0.000638147 0 0
0.000638147 0 0
0.000639148 0 0
0.000639148 0 0
0.00064015 0 0
0.00064015 0 0
0.00064115 0 0
0.00064115 0 0
0.00064215 0 0
0.00064215 0 0
0.000643149 0 0
0.000643149 0 0
0.000644148 0 0
0.000644148 0 0
0.000645146 0 0
0.000645146 0 0
0.000646144 0 0
0.000646144 0 0
0.000647141 0 0
0.000647141 0 0
0.000648137 0 0
0.000648137 0 0
0.000649133 0 0
0.000649133 0 0
0.000650128 0 0
0.000650128 0 0
0.000651123 0 0
0.000651123 0 0
0.000652117 0 0
0.000652117 0 0
0.000653111 0 0
0.000653111 0 0
0.000654104 0 0
0.000654104 0 0
0.000655096 0 0
0.000655096 0 0
0.000656088 0 0
0.000656088 0 0
0.000657079 0 0
0.000657079 0 0
0.000658069 0 0
0.000658069 0 0
0.000659059 0 0
0.000659059 0 0
0.000660049 0 0
0.000660049 0 0
0.000661037 0 0
0.000661037 0 0
0.000662025 0 0
0.000662025 0 0
0.000663013 0 0
0.000663013 0 0
0.000664 0 0
0.000664 0 0
0.000664986 0 0
0.000664986 0 0
0.000665972 0 0
0.000665972 0 0
0.000666957 0 0
0.000666957 0 0
0.000667942 0 0
0.000667942 0 0
0.000668926 0 0
0.000668926 0 0
0.000669909 0 0
0.000669909 0 0
0.000670892 0 0
0.000670892 0 0
0.000671874 0 0
0.000671874 0 0
0.000672856 0 0
0.000672856 0 0
0.000673837 0 0
0.000673837 0 0
0.000674817 0 0
0.000674817 0 0
0.000675797 0 0
0.000675797 0 0
0.000676776 0 0
0.000676776 0 0
0.000677754 0 0
0.000677754 0 0
0.000678732 0 0
0.000678732 0 0
0.000679709 0 0
0.000679709 0 0
0.000680686 0 0
0.000680686 0 0
0.000681662 0 0
0.000681662 0 0
0.000682637 0 0
0.000682637 0 0
0.000683612 0 0
0.000683612 0 0
0.000684586 0 0
0.000684586 0 0
0.00068556 0 0
0.00068556 0 0
0.000686533 0 0
0.000686533 0 0
0.000687505 0 0
0.000687505 0 0
0.000688477 0 0
0.000688477 0 0
0.000689448 0 0
0.000689448 0 0
0.000690418 0 0
0.000690418 0 0
0.000691388 0 0
0.000691388 0 0