# vtk DataFile Version 3.0
#This file was generated by the deal.II library on 2018/10/23 at 21:58:53
ASCII
DATASET UNSTRUCTURED_GRID

POINTS 2000 double
0 0 0
0.0001 0 0
0.0001 0 0
0.0002 0 0
0.0002 0 0
0.0003 0 0
0.0003 0 0
0.0004 0 0
0.0004 0 0
0.0005 0 0
0.0005 0 0
0.0006 0 0
0.0006 0 0
0.0007 0 0
0.0007 0 0
0.0008 0 0
0.0008 0 0
0.0009 0 0
0.0009 0 0
0.001 0 0
0.001 0 0
0.0011 0 0
0.0011 0 0
0.0012 0 0
0.0012 0 0
0.0013 0 0
0.0013 0 0
0.0014 0 0
0.0014 0 0
0.0015 0 0
0.0015 0 0
0.0016 0 0
0.0016 0 0
0.0017 0 0
0.0017 0 0
0.0018 0 0
0.0018 0 0
0.0019 0 0
0.0019 0 0
0.002 0 0
0.002 0 0
0.0021 0 0
0.0021 0 0
0.0022 0 0
0.0022 0 0
0.0023 0 0
0.0023 0 0
0.0024 0 0
0.0024 0 0
0.0025 0 0
0.0025 0 0
0.0026 0 0
0.0026 0 0
0.0027 0 0
0.0027 0 0
0.0028 0 0
0.0028 0 0
0.0029 0 0
0.0029 0 0
0.003 0 0
0.003 0 0
0.0031 0 0
0.0031 0 0
0.0032 0 0
0.0032 0 0
0.0033 0 0
0.0033 0 0
0.0034 0 0
0.0034 0 0
0.0035 0 0
0.0035 0 0
0.0036 0 0
0.0036 0 0
0.0037 0 0
0.0037 0 0
0.0038 0 0
0.0038 0 0
0.0039 0 0
0.0039 0 0
0.004 0 0
0.004 0 0
0.0041 0 0
0.0041 0 0
0.0042 0 0
0.0042 0 0
0.0043 0 0
0.0043 0 0
0.0044 0 0
0.0044 0 0
0.0045 0 0
0.0045 0 0
0.0046 0 0
0.0046 0 0
0.0047 0 0
0.0047 0 0
0.0048 0 0
0.0048 0 0
0.0049 0 0
0.0049 0 0
0.005 0 0
0.005 0 0
0.0051 0 0
0.0051 0 0
0.0052 0 0
0.0052 0 0
0.0053 0 0
0.0053 0 0
0.0054 0 0
0.0054 0 0
0.0055 0 0
0.0055 0 0
0.0056 0 0
0.0056 0 0
0.0057 0 0
0.0057 0 0
0.0058 0 0
0.0058 0 0
0.0059 0 0
0.0059 0 0
0.006 0 0
0.006 0 0
0.0061 0 0
0.0061 0 0
0.0062 0 0
0.0062 0 0
0.0063 0 0
0.0063 0 0
0.0064 0 0
0.0064 0 0
0.0065 0 0
0.0065 0 0
0.0066 0 0
0.0066 0 0
0.0067 0 0
0.0067 0 0
0.0068 0 0
0.0068 0 0
0.0069 0 0
0.0069 0 0
0.007 0 0
0.007 0 0
0.0071 0 0
0.0071 0 0
0.0072 0 0
0.0072 0 0
0.0073 0 0
0.0073 0 0
0.0074 0 0
0.0074 0 0
0.0075 0 0
0.0075 0 0
0.0076 0 0
0.0076 0 0
0.0077 0 0
0.0077 0 0
0.0078 0 0
0.0078 0 0
0.0079 0 0
0.0079 0 0
0.008 0 0
0.008 0 0
0.0081 0 0
0.0081 0 0
0.0082 0 0
0.0082 0 0
0.0083 0 0
0.0083 0 0
0.0084 0 0
0.0084 0 0
0.0085 0 0
0.0085 0 0
0.0086 0 0
0.0086 0 0
0.0087 0 0
0.0087 0 0
0.0088 0 0
0.0088 0 0
0.0089 0 0
0.0089 0 0
0.009 0 0
0.009 0 0
0.0091 0 0
0.0091 0 0
0.0092 0 0
0.0092 0 0
0.0093 0 0
0.0093 0 0
0.0094 0 0
0.0094 0 0
0.0095 0 0
0.0095 0 0
0.0096 0 0
0.0096 0 0
0.0097 0 0
0.0097 0 0
0.0098 0 0
0.0098 0 0
0.0099 0 0
0.0099 0 0
0.01 0 0
0.01 0 0
0.0101 0 0
0.0101 0 0
0.0102 0 0
0.0102 0 0
0.0103 0 0
0.0103 0 0
0.0104 0 0
0.0104 0 0
0.0105 0 0
0.0105 0 0
0.0106 0 0
0.0106 0 0
0.0107 0 0
0.0107 0 0
0.0108 0 0
0.0108 0 0
0.0109 0 0
0.0109 0 0
0.011 0 0
0.011 0 0
0.0111 0 0
0.0111 0 0
0.0112 0 0
0.0112 0 0
0.0113 0 0
0.0113 0 0
0.0114 0 0
0.0114 0 0
0.0115 0 0
0.0115 0 0
0.0116 0 0
0.0116 0 0
0.0117 0 0
0.0117 0 0
0.0118 0 0
0.0118 0 0
0.0119 0 0
0.0119 0 0
0.012 0 0
0.012 0 0
0.0121 0 0
0.0121 0 0
0.0122 0 0
0.0122 0 0
0.0123 0 0
0.0123 0 0
0.0124 0 0
0.0124 0 0
0.0125 0 0
0.0125 0 0
0.0126 0 0
0.0126 0 0
0.0127 0 0
0.0127 0 0
0.0128 0 0
0.0128 0 0
0.0129 0 0
0.0129 0 0
0.013 0 0
0.013 0 0
0.0131 0 0
0.0131 0 0
0.0132 0 0
0.0132 0 0
0.0133 0 0
0.0133 0 0
0.0134 0 0
0.0134 0 0
0.0135 0 0
0.0135 0 0
0.0136 0 0
0.0136 0 0
0.0137 0 0
0.0137 0 0
0.0138 0 0
0.0138 0 0
0.0139 0 0
0.0139 0 0
0.014 0 0
0.014 0 0
0.0141 0 0
0.0141 0 0
0.0142 0 0
0.0142 0 0
0.0143 0 0
0.0143 0 0
0.0144 0 0
0.0144 0 0
0.0145 0 0
0.0145 0 0
0.0146 0 0
0.0146 0 0
0.0147 0 0
0.0147 0 0
0.0148 0 0
0.0148 0 0
0.0149 0 0
0.0149 0 0
0.015 0 0
0.015 0 0
0.0151 0 0
0.0151 0 0
0.0152 0 0
0.0152 0 0
0.0153 0 0
0.0153 0 0
0.0154 0 0
0.0154 0 0
0.0155 0 0
0.0155 0 0
0.0156 0 0
0.0156 0 0
0.0157 0 0
0.0157 0 0
0.0158 0 0
0.0158 0 0
0.0159 0 0
0.0159 0 0
0.016 0 0
0.016 0 0
0.0161 0 0
0.0161 0 0
0.0162 0 0
0.0162 0 0
0.0163 0 0
0.0163 0 0
0.0164 0 0
0.0164 0 0
0.0165 0 0
0.0165 0 0
0.0166 0 0
0.0166 0 0
0.0167 0 0
0.0167 0 0
0.0168 0 0
0.0168 0 0
0.0169 0 0
0.0169 0 0
0.017 0 0
0.017 0 0
0.0171 0 0
0.0171 0 0
0.0172 0 0
0.0172 0 0
0.0173 0 0
0.0173 0 0
0.0174 0 0
0.0174 0 0
0.0175 0 0
0.0175 0 0
0.0176 0 0
0.0176 0 0
0.0177 0 0
0.0177 0 0
0.0178 0 0
0.0178 0 0
0.0179 0 0
0.0179 0 0
0.018 0 0
0.018 0 0
0.0181 0 0
0.0181 0 0
0.0182 0 0
0.0182 0 0
0.0183 0 0
0.0183 0 0
0.0184 0 0
0.0184 0 0
0.0185 0 0
0.0185 0 0
0.0186 0 0
0.0186 0 0
0.0187 0 0
0.0187 0 0
0.0188 0 0
0.0188 0 0
0.0189 0 0
0.0189 0 0
0.019 0 0
0.019 0 0
0.0191 0 0
0.0191 0 0
0.0192 0 0
0.0192 0 0
0.0193 0 0
0.0193 0 0
0.0194 0 0
0.0194 0 0
0.0195 0 0
0.0195 0 0
0.0196 0 0
0.0196 0 0
0.0197 0 0
0.0197 0 0
0.0198 0 0
0.0198 0 0
0.0199 0 0
0.0199 0 0
0.02 0 0
0.02 0 0
0.0201 0 0
0.0201 0 0
0.0202 0 0
0.0202 0 0
0.0203 0 0
0.0203 0 0
0.0204 0 0
0.0204 0 0
0.0205 0 0
0.0205 0 0
0.0206 0 0
0.0206 0 0
0.0207 0 0
0.0207 0 0
0.0208 0 0
0.0208 0 0
0.0209 0 0
0.0209 0 0
0.021 0 0
0.021 0 0
0.0211 0 0
0.0211 0 0
0.0212 0 0
0.0212 0 0
0.0213 0 0
0.0213 0 0
0.0214 0 0
0.0214 0 0
0.0215 0 0
0.0215 0 0
0.0216 0 0
0.0216 0 0
0.0217 0 0
0.0217 0 0
0.0218 0 0
0.0218 0 0
0.0219 0 0
0.0219 0 0
0.022 0 0
0.022 0 0
0.0221 0 0
0.0221 0 0
0.0222 0 0
0.0222 0 0
0.0223 0 0
0.0223 0 0
0.0224 0 0
0.0224 0 0
0.0225 0 0
0.0225 0 0
0.0226 0 0
0.0226 0 0
0.0227 0 0
0.0227 0 0
0.0228 0 0
0.0228 0 0
0.0229 0 0
0.0229 0 0
0.023 0 0
0.023 0 0
0.0231 0 0
0.0231 0 0
0.0232 0 0
0.0232 0 0
0.0233 0 0
0.0233 0 0
0.0234 0 0
0.0234 0 0
0.0235 0 0
0.0235 0 0
0.0236 0 0
0.0236 0 0
0.0237 0 0
0.0237 0 0
0.0238 0 0
0.0238 0 0
0.0239 0 0
0.0239 0 0
0.024 0 0
0.024 0 0
0.0241 0 0
0.0241 0 0
0.0242 0 0
0.0242 0 0
0.0243 0 0
0.0243 0 0
0.0244 0 0
0.0244 0 0
0.0245 0 0
0.0245 0 0
0.0246 0 0
0.0246 0 0
0.0247 0 0
0.0247 0 0
0.0248 0 0
0.0248 0 0
0.0249 0 0
0.0249 0 0
0.025 0 0
0.025 0 0
0.0251 0 0
0.0251 0 0
0.0252 0 0
0.0252 0 0
0.0253 0 0
0.0253 0 0
0.0254 0 0
0.0254 0 0
0.0255 0 0
0.0255 0 0
0.0256 0 0
0.0256 0 0
0.0257 0 0
0.0257 0 0
0.0258 0 0
0.0258 0 0
0.0259 0 0
0.0259 0 0
0.026 0 0
0.026 0 0
0.0261 0 0
0.0261 0 0
0.0262 0 0
0.0262 0 0
0.0263 0 0
0.0263 0 0
0.0264 0 0
0.0264 0 0
0.0265 0 0
0.0265 0 0
0.0266 0 0
0.0266 0 0
0.0267 0 0
0.0267 0 0
0.0268 0 0
0.0268 0 0
0.0269 0 0
0.0269 0 0
0.027 0 0
0.027 0 0
0.0271 0 0
0.0271 0 0
0.0272 0 0
0.0272 0 0
0.0273 0 0
0.0273 0 0
0.0274 0 0
0.0274 0 0
0.0275 0 0
0.0275 0 0
0.0276 0 0
0.0276 0 0
0.0277 0 0
0.0277 0 0
0.0278 0 0
0.0278 0 0
0.0279 0 0
0.0279 0 0
0.028 0 0
0.028 0 0
0.0281 0 0
0.0281 0 0
0.0282 0 0
0.0282 0 0
0.0283 0 0
0.0283 0 0
0.0284 0 0
0.0284 0 0
0.0285 0 0
0.0285 0 0
0.0286 0 0
0.0286 0 0
0.0287 0 0
0.0287 0 0
0.0288 0 0
0.0288 0 0
0.0289 0 0
0.0289 0 0
0.029 0 0
0.029 0 0
0.0291 0 0
0.0291 0 0
0.0292 0 0
0.0292 0 0
0.0293 0 0
0.0293 0 0
0.0294 0 0
0.0294 0 0
0.0295 0 0
0.0295 0 0
0.0296 0 0
0.0296 0 0
0.0297 0 0
0.0297 0 0
0.0298 0 0
0.0298 0 0
0.0299 0 0
0.0299 0 0
0.03 0 0
0.03 0 0
0.0301 0 0
0.0301 0 0
0.0302 0 0
0.0302 0 0
0.0303 0 0
0.0303 0 0
0.0304 0 0
0.0304 0 0
0.0305 0 0
0.0305 0 0
0.0306 0 0
0.0306 0 0
0.0307 0 0
0.0307 0 0
0.0308 0 0
0.0308 0 0
0.0309 0 0
0.0309 0 0
0.031 0 0
0.031 0 0
0.0311 0 0
0.0311 0 0
0.0312 0 0
0.0312 0 0
0.0313 0 0
0.0313 0 0
0.0314 0 0
0.0314 0 0
0.0315 0 0
0.0315 0 0
0.0316 0 0
0.0316 0 0
0.0317 0 0
0.0317 0 0
0.0318 0 0
0.0318 0 0
0.0319 0 0
0.0319 0 0
0.032 0 0
0.032 0 0
0.0321 0 0
0.0321 0 0
0.0322 0 0
0.0322 0 0
0.0323 0 0
0.0323 0 0
0.0324 0 0
0.0324 0 0
0.0325 0 0
0.0325 0 0
0.0326 0 0
0.0326 0 0
0.0327 0 0
0.0327 0 0
0.0328 0 0
0.0328 0 0
0.0329 0 0
0.0329 0 0
0.033 0 0
0.033 0 0
0.0331 0 0
0.0331 0 0
0.0332 0 0
0.0332 0 0
0.0333 0 0
0.0333 0 0
0.0334 0 0
0.0334 0 0
0.0335 0 0
0.0335 0 0
0.0336 0 0
0.0336 0 0
0.0337 0 0
0.0337 0 0
0.0338 0 0
0.0338 0 0
0.0339 0 0
0.0339 0 0
0.034 0 0
0.034 0 0
0.0341 0 0
0.0341 0 0
0.0342 0 0
0.0342 0 0
0.0343 0 0
0.0343 0 0
0.0344 0 0
0.0344 0 0
0.0345 0 0
0.0345 0 0
0.0346 0 0
0.0346 0 0
0.0347 0 0
0.0347 0 0
0.0348 0 0
0.0348 0 0
0.0349 0 0
0.0349 0 0
0.035 0 0
0.035 0 0
0.0351 0 0
0.0351 0 0
0.0352 0 0
0.0352 0 0
0.0353 0 0
0.0353 0 0
0.0354 0 0
0.0354 0 0
0.0355 0 0
0.0355 0 0
0.0356 0 0
0.0356 0 0
0.0357 0 0
0.0357 0 0
0.0358 0 0
0.0358 0 0
0.0359 0 0
0.0359 0 0
0.036 0 0
0.036 0 0
0.0361 0 0
0.0361 0 0
0.0362 0 0
0.0362 0 0
0.0363 0 0
0.0363 0 0
0.0364 0 0
0.0364 0 0
0.0365 0 0
0.0365 0 0
0.0366 0 0
0.0366 0 0
0.0367 0 0
0.0367 0 0
0.0368 0 0
0.0368 0 0
0.0369 0 0
0.0369 0 0
0.037 0 0
0.037 0 0
0.0371 0 0
0.0371 0 0
0.0372 0 0
0.0372 0 0
0.0373 0 0
0.0373 0 0
0.0374 0 0
0.0374 0 0
0.0375 0 0
0.0375 0 0
0.0376 0 0
0.0376 0 0
0.0377 0 0
0.0377 0 0
0.0378 0 0
0.0378 0 0
0.0379 0 0
0.0379 0 0
0.038 0 0
0.038 0 0
0.0381 0 0
0.0381 0 0
0.0382 0 0
0.0382 0 0
0.0383 0 0
0.0383 0 0
0.0384 0 0
0.0384 0 0
0.0385 0 0
0.0385 0 0
0.0386 0 0
0.0386 0 0
0.0387 0 0
0.0387 0 0
0.0388 0 0
0.0388 0 0
0.0389 0 0
0.0389 0 0
0.039 0 0
0.039 0 0
0.0391 0 0
0.0391 0 0
0.0392 0 0
0.0392 0 0
0.0393 0 0
0.0393 0 0
0.0394 0 0
0.0394 0 0
0.0395 0 0
0.0395 0 0
0.0396 0 0
0.0396 0 0
0.0397 0 0
0.0397 0 0
0.0398 0 0
0.0398 0 0
0.0399 0 0
0.0399 0 0
0.04 0 0
0.04 0 0
0.0401 0 0
0.0401 0 0
0.0402 0 0
0.0402 0 0
0.0403 0 0
0.0403 0 0
0.0404 0 0
0.0404 0 0
0.0405 0 0
0.0405 0 0
0.0406 0 0
0.0406 0 0
0.0407 0 0
0.0407 0 0
0.0408 0 0
0.0408 0 0
0.0409 0 0
0.0409 0 0
0.041 0 0
0.041 0 0
0.0411 0 0
0.0411 0 0
0.0412 0 0
0.0412 0 0
0.0413 0 0
0.0413 0 0
0.0414 0 0
0.0414 0 0
0.0415 0 0
0.0415 0 0
0.0416 0 0
0.0416 0 0
0.0417 0 0
0.0417 0 0
0.0418 0 0
0.0418 0 0
0.0419 0 0
0.0419 0 0
0.042 0 0
0.042 0 0
0.0421 0 0
0.0421 0 0
0.0422 0 0
0.0422 0 0
0.0423 0 0
0.0423 0 0
0.0424 0 0
0.0424 0 0
0.0425 0 0
0.0425 0 0
0.0426 0 0
0.0426 0 0
0.0427 0 0
0.0427 0 0
0.0428 0 0
0.0428 0 0
0.0429 0 0
0.0429 0 0
0.043 0 0
0.043 0 0
0.0431 0 0
0.0431 0 0
0.0432 0 0
0.0432 0 0
0.0433 0 0
0.0433 0 0
0.0434 0 0
0.0434 0 0
0.0435 0 0
0.0435 0 0
0.0436 0 0
0.0436 0 0
0.0437 0 0
0.0437 0 0
0.0438 0 0
0.0438 0 0
0.0439 0 0
0.0439 0 0
0.044 0 0
0.044 0 0
0.0441 0 0
0.0441 0 0
0.0442 0 0
0.0442 0 0
0.0443 0 0
0.0443 0 0
0.0444 0 0
0.0444 0 0
0.0445 0 0
0.0445 0 0
0.0446 0 0
0.0446 0 0
0.0447 0 0
0.0447 0 0
0.0448 0 0
0.0448 0 0
0.0449 0 0
0.0449 0 0
0.045 0 0
0.045 0 0
0.0451 0 0
0.0451 0 0
0.0452 0 0
[...]
POINT_DATA 2000
VECTORS u double
0 0 0
1.01667e-05 0 0
1.01667e-05 0 0
2.03333e-05 0 0
2.03333e-05 0 0
3.05e-05 0 0
3.05e-05 0 0
4.06667e-05 0 0
4.06667e-05 0 0
5.08333e-05 0 0
5.08333e-05 0 0
6.1e-05 0 0
6.1e-05 0 0
7.11666e-05 0 0
7.11666e-05 0 0
8.13333e-05 0 0
8.13333e-05 0 0
9.14999e-05 0 0
9.14999e-05 0 0
0.000101666 0 0
0.000101666 0 0
0.000111833 0 0
0.000111833 0 0
0.000122 0 0
0.000122 0 0
0.000132166 0 0
0.000132166 0 0
0.000142333 0 0
0.000142333 0 0
0.000152499 0 0
0.000152499 0 0
0.000162666 0 0
0.000162666 0 0
0.000172833 0 0
0.000172833 0 0
0.000182999 0 0
0.000182999 0 0
0.000193166 0 0
0.000193166 0 0
0.000203332 0 0
0.000203332 0 0
0.000213498 0 0
0.000213498 0 0
0.000223665 0 0
0.000223665 0 0
0.000233831 0 0
0.000233831 0 0
0.000243998 0 0
0.000243998 0 0
0.000254164 0 0
0.000254164 0 0
0.00026433 0 0
0.00026433 0 0
0.000274497 0 0
0.000274497 0 0
0.000284663 0 0
0.000284663 0 0
0.000294829 0 0
0.000294829 0 0
0.000304996 0 0
0.000304996 0 0
0.000315162 0 0
0.000315162 0 0
0.000325328 0 0
0.000325328 0 0
0.000335494 0 0
0.000335494 0 0
0.00034566 0 0
0.00034566 0 0
0.000355826 0 0
0.000355826 0 0
0.000365992 0 0
0.000365992 0 0
0.000376158 0 0
0.000376158 0 0
0.000386324 0 0
0.000386324 0 0
0.00039649 0 0
0.00039649 0 0
0.000406656 0 0
0.000406656 0 0
0.000416822 0 0
0.000416822 0 0
0.000426988 0 0
0.000426988 0 0
0.000437154 0 0
0.000437154 0 0
0.000447319 0 0
0.000447319 0 0
0.000457485 0 0
0.000457485 0 0
0.000467651 0 0
0.000467651 0 0
0.000477816 0 0
0.000477816 0 0
0.000487982 0 0
0.000487982 0 0
0.000498148 0 0
0.000498148 0 0
0.000508313 0 0
0.000508313 0 0
0.000518478 0 0
0.000518478 0 0
0.000528644 0 0
0.000528644 0 0
0.000538809 0 0
0.000538809 0 0
0.000548974 0 0
0.000548974 0 0
0.00055914 0 0
0.00055914 0 0
0.000569305 0 0
0.000569305 0 0
0.00057947 0 0
0.00057947 0 0
0.000589635 0 0
0.000589635 0 0
0.0005998 0 0
0.0005998 0 0
0.000609965 0 0
0.000609965 0 0
0.00062013 0 0
0.00062013 0 0
0.000630295 0 0
0.000630295 0 0
0.00064046 0 0
0.00064046 0 0
0.000650624 0 0
0.000650624 0 0
0.000660789 0 0
0.000660789 0 0
0.000670954 0 0
0.000670954 0 0
0.000681118 0 0
0.000681118 0 0
0.000691283 0 0
0.000691283 0 0
0.000701447 0 0
0.000701447 0 0
0.000711611 0 0
0.000711611 0 0
0.000721776 0 0
0.000721776 0 0
0.00073194 0 0
0.00073194 0 0
0.000742104 0 0
0.000742104 0 0
0.000752268 0 0
0.000752268 0 0
0.000762432 0 0
0.000762432 0 0
0.000772596 0 0
0.000772596 0 0
0.00078276 0 0
0.00078276 0 0
0.000792924 0 0
0.000792924 0 0
0.000803088 0 0
0.000803088 0 0
0.000813251 0 0
0.000813251 0 0
0.000823415 0 0
0.000823415 0 0
0.000833579 0 0
0.000833579 0 0
0.000843742 0 0
0.000843742 0 0
0.000853905 0 0
0.000853905 0 0
0.000864069 0 0
0.000864069 0 0
0.000874232 0 0
0.000874232 0 0
0.000884395 0 0
0.000884395 0 0
0.000894558 0 0
0.000894558 0 0
0.000904721 0 0
0.000904721 0 0
0.000914884 0 0
0.000914884 0 0
0.000925047 0 0
0.000925047 0 0
0.00093521 0 0
0.00093521 0 0
0.000945372 0 0
0.000945372 0 0
0.000955535 0 0
0.000955535 0 0
0.000965697 0 0
0.000965697 0 0
0.00097586 0 0
0.00097586 0 0
0.000986022 0 0
0.000986022 0 0
0.000996184 0 0
0.000996184 0 0
0.00100635 0 0
0.00100635 0 0
0.00101651 0 0
0.00101651 0 0
0.00102667 0 0
0.00102667 0 0
0.00103683 0 0
0.00103683 0 0
0.00104699 0 0
0.00104699 0 0
0.00105716 0 0
0.00105716 0 0
0.00106732 0 0
0.00106732 0 0
0.00107748 0 0
0.00107748 0 0
0.00108764 0 0
0.00108764 0 0
0.0010978 0 0
0.0010978 0 0
0.00110796 0 0
0.00110796 0 0
0.00111812 0 0
0.00111812 0 0
0.00112828 0 0
0.00112828 0 0
0.00113845 0 0
0.00113845 0 0
0.00114861 0 0
0.00114861 0 0
0.00115877 0 0
0.00115877 0 0
0.00116893 0 0
0.00116893 0 0
0.00117909 0 0
0.00117909 0 0
0.00118925 0 0
0.00118925 0 0
0.00119941 0 0
0.00119941 0 0
0.00120957 0 0
0.00120957 0 0
0.00121973 0 0
0.00121973 0 0
0.00122989 0 0
0.00122989 0 0
0.00124005 0 0
0.00124005 0 0
0.00125021 0 0
0.00125021 0 0
0.00126037 0 0
0.00126037 0 0
0.00127053 0 0
0.00127053 0 0
0.00128069 0 0
0.00128069 0 0
0.00129085 0 0
0.00129085 0 0
0.00130101 0 0
0.00130101 0 0
0.00131117 0 0
0.00131117 0 0
0.00132132 0 0
0.00132132 0 0
0.00133148 0 0
0.00133148 0 0
0.00134164 0 0
0.00134164 0 0
0.0013518 0 0
0.0013518 0 0
0.00136196 0 0
0.00136196 0 0
0.00137212 0 0
0.00137212 0 0
0.00138228 0 0
0.00138228 0 0
0.00139243 0 0
0.00139243 0 0
0.00140259 0 0
0.00140259 0 0
0.00141275 0 0
0.00141275 0 0
0.00142291 0 0
0.00142291 0 0
0.00143307 0 0
0.00143307 0 0
0.00144322 0 0
0.00144322 0 0
0.00145338 0 0
0.00145338 0 0
0.00146354 0 0
0.00146354 0 0
0.0014737 0 0
0.0014737 0 0
0.00148385 0 0
0.00148385 0 0
0.00149401 0 0
0.00149401 0 0
0.00150417 0 0
0.00150417 0 0
0.00151432 0 0
0.00151432 0 0
0.00152448 0 0
0.00152448 0 0
0.00153464 0 0
0.00153464 0 0
0.00154479 0 0
0.00154479 0 0
0.00155495 0 0
0.00155495 0 0
0.0015651 0 0
0.0015651 0 0
0.00157526 0 0
0.00157526 0 0
0.00158542 0 0
0.00158542 0 0
0.00159557 0 0
0.00159557 0 0
0.00160573 0 0
0.00160573 0 0
0.00161588 0 0
0.00161588 0 0
0.00162604 0 0
0.00162604 0 0
0.00163619 0 0
0.00163619 0 0
0.00164635 0 0
0.00164635 0 0
0.0016565 0 0
0.0016565 0 0
0.00166666 0 0
0.00166666 0 0
0.00167681 0 0
0.00167681 0 0
0.00168697 0 0
0.00168697 0 0
0.00169712 0 0
0.00169712 0 0
0.00170728 0 0
0.00170728 0 0
0.00171743 0 0
0.00171743 0 0
0.00172758 0 0
0.00172758 0 0
0.00173774 0 0
0.00173774 0 0
0.00174789 0 0
0.00174789 0 0
0.00175805 0 0
0.00175805 0 0
0.0017682 0 0
0.0017682 0 0
0.00177835 0 0
0.00177835 0 0
0.0017885 0 0
0.0017885 0 0
0.00179866 0 0
0.00179866 0 0
0.00180881 0 0
0.00180881 0 0
0.00181896 0 0
0.00181896 0 0
0.00182912 0 0
0.00182912 0 0
0.00183927 0 0
0.00183927 0 0
0.00184942 0 0
0.00184942 0 0
0.00185957 0 0
0.00185957 0 0
0.00186972 0 0
0.00186972 0 0
0.00187988 0 0
0.00187988 0 0
0.00189003 0 0
0.00189003 0 0
0.00190018 0 0
0.00190018 0 0
0.00191033 0 0
0.00191033 0 0
0.00192048 0 0
0.00192048 0 0
0.00193063 0 0
0.00193063 0 0
0.00194078 0 0
0.00194078 0 0
0.00195093 0 0
0.00195093 0 0
0.00196108 0 0
0.00196108 0 0
0.00197123 0 0
0.00197123 0 0
0.00198138 0 0
0.00198138 0 0
0.00199153 0 0
0.00199153 0 0
0.00200168 0 0
0.00200168 0 0
0.00201183 0 0
0.00201183 0 0
0.00202198 0 0
0.00202198 0 0
0.00203213 0 0
0.00203213 0 0
0.00204228 0 0
0.00204228 0 0
0.00205243 0 0
0.00205243 0 0
0.00206258 0 0
0.00206258 0 0
0.00207273 0 0
0.00207273 0 0
0.00208288 0 0
0.00208288 0 0
0.00209303 0 0
0.00209303 0 0
0.00210317 0 0
0.00210317 0 0
0.00211332 0 0
0.00211332 0 0
0.00212347 0 0
0.00212347 0 0
0.00213362 0 0
0.00213362 0 0
0.00214377 0 0
0.00214377 0 0
0.00215391 0 0
0.00215391 0 0
0.00216406 0 0
0.00216406 0 0
0.00217421 0 0
0.00217421 0 0
0.00218435 0 0
0.00218435 0 0
0.0021945 0 0
0.0021945 0 0
0.00220465 0 0
0.00220465 0 0
0.00221479 0 0
0.00221479 0 0
0.00222494 0 0
0.00222494 0 0
0.00223509 0 0
0.00223509 0 0
0.00224523 0 0
0.00224523 0 0
0.00225538 0 0
0.00225538 0 0
0.00226552 0 0
0.00226552 0 0
0.00227567 0 0
0.00227567 0 0
0.00228582 0 0
0.00228582 0 0
0.00229596 0 0
0.00229596 0 0
0.00230611 0 0
0.00230611 0 0
0.00231625 0 0
0.00231625 0 0
0.00232639 0 0
0.00232639 0 0
0.00233654 0 0
0.00233654 0 0
0.00234668 0 0
0.00234668 0 0
0.00235683 0 0
0.00235683 0 0
0.00236697 0 0
0.00236697 0 0
0.00237711 0 0
0.00237711 0 0
0.00238726 0 0
0.00238726 0 0
0.0023974 0 0
0.0023974 0 0
0.00240754 0 0
0.00240754 0 0
0.00241769 0 0
0.00241769 0 0
0.00242783 0 0
0.00242783 0 0
0.00243797 0 0
0.00243797 0 0
0.00244811 0 0
0.00244811 0 0
0.00245826 0 0
0.00245826 0 0
0.0024684 0 0
0.0024684 0 0
0.00247854 0 0
0.00247854 0 0
0.00248868 0 0
0.00248868 0 0
0.00249882 0 0
0.00249882 0 0
0.00250897 0 0
0.00250897 0 0
0.00251911 0 0
0.00251911 0 0
0.00252925 0 0
0.00252925 0 0
0.00253939 0 0
0.00253939 0 0
0.00254953 0 0
0.00254953 0 0
0.00255967 0 0
0.00255967 0 0
0.00256981 0 0
0.00256981 0 0
0.00257995 0 0
0.00257995 0 0
0.00259009 0 0
0.00259009 0 0
0.00260023 0 0
0.00260023 0 0
0.00261037 0 0
0.00261037 0 0
0.00262051 0 0
0.00262051 0 0
0.00263065 0 0
0.00263065 0 0
0.00264078 0 0
0.00264078 0 0
0.00265092 0 0
0.00265092 0 0
0.00266106 0 0
0.00266106 0 0
0.0026712 0 0
0.0026712 0 0
0.00268134 0 0
0.00268134 0 0
0.00269148 0 0
0.00269148 0 0
0.00270161 0 0
0.00270161 0 0
0.00271175 0 0
0.00271175 0 0
0.00272189 0 0
0.00272189 0 0
0.00273203 0 0
0.00273203 0 0
0.00274216 0 0
0.00274216 0 0
0.0027523 0 0
0.0027523 0 0
0.00276244 0 0
0.00276244 0 0
0.00277257 0 0
0.00277257 0 0
0.00278271 0 0
0.00278271 0 0
0.00279284 0 0
0.00279284 0 0
0.00280298 0 0
0.00280298 0 0
0.00281312 0 0
0.00281312 0 0
0.00282325 0 0
0.00282325 0 0
0.00283339 0 0
0.00283339 0 0
0.00284352 0 0
0.00284352 0 0
0.00285365 0 0
0.00285365 0 0
0.00286379 0 0
0.00286379 0 0
0.00287392 0 0
0.00287392 0 0
0.00288406 0 0
0.00288406 0 0
0.00289419 0 0
0.00289419 0 0
0.00290433 0 0
0.00290433 0 0
0.00291446 0 0
0.00291446 0 0
0.00292459 0 0
0.00292459 0 0
0.00293473 0 0
0.00293473 0 0
0.00294486 0 0
0.00294486 0 0
0.00295499 0 0
0.00295499 0 0
0.00296512 0 0
0.00296512 0 0
0.00297526 0 0
0.00297526 0 0
0.00298539 0 0
0.00298539 0 0
0.00299552 0 0
0.00299552 0 0
0.00300565 0 0
0.00300565 0 0
0.00301578 0 0
0.00301578 0 0
0.00302591 0 0
0.00302591 0 0
0.00303604 0 0
0.00303604 0 0
0.00304617 0 0
0.00304617 0 0
0.00305631 0 0
0.00305631 0 0
0.00306644 0 0
0.00306644 0 0
0.00307657 0 0
0.00307657 0 0
0.0030867 0 0
0.0030867 0 0
0.00309683 0 0
0.00309683 0 0
0.00310696 0 0
0.00310696 0 0
0.00311708 0 0
0.00311708 0 0
0.00312721 0 0
0.00312721 0 0
0.00313734 0 0
0.00313734 0 0
0.00314747 0 0
0.00314747 0 0
0.0031576 0 0
0.0031576 0 0
0.00316773 0 0
0.00316773 0 0
0.00317786 0 0
0.00317786 0 0
0.00318798 0 0
0.00318798 0 0
0.00319811 0 0
0.00319811 0 0
0.00320824 0 0
0.00320824 0 0
0.00321837 0 0
0.00321837 0 0
0.00322849 0 0
0.00322849 0 0
0.00323862 0 0
0.00323862 0 0
0.00324875 0 0
0.00324875 0 0
0.00325887 0 0
0.00325887 0 0
0.003269 0 0
0.003269 0 0
0.00327912 0 0
0.00327912 0 0
0.00328925 0 0
0.00328925 0 0
0.00329938 0 0
0.00329938 0 0
0.0033095 0 0
0.0033095 0 0
0.00331963 0 0
0.00331963 0 0
0.00332975 0 0
0.00332975 0 0
0.00333987 0 0
0.00333987 0 0
0.00335 0 0
0.00335 0 0
0.00336012 0 0
0.00336012 0 0
0.00337025 0 0
0.00337025 0 0
0.00338037 0 0
0.00338037 0 0
0.00339049 0 0
0.00339049 0 0
0.00340062 0 0
0.00340062 0 0
0.00341074 0 0
0.00341074 0 0
0.00342086 0 0
0.00342086 0 0
0.00343099 0 0
0.00343099 0 0
0.00344111 0 0
0.00344111 0 0
0.00345123 0 0
0.00345123 0 0
0.00346135 0 0
0.00346135 0 0
0.00347147 0 0
0.00347147 0 0
0.00348159 0 0
0.00348159 0 0
0.00349172 0 0
0.00349172 0 0
0.00350184 0 0
0.00350184 0 0
0.00351196 0 0
0.00351196 0 0
0.00352208 0 0
0.00352208 0 0
0.0035322 0 0
0.0035322 0 0
0.00354232 0 0
0.00354232 0 0
0.00355244 0 0
0.00355244 0 0
0.00356256 0 0
0.00356256 0 0
0.00357268 0 0
0.00357268 0 0
0.0035828 0 0
0.0035828 0 0
0.00359292 0 0
0.00359292 0 0
0.00360303 0 0
0.00360303 0 0
0.00361315 0 0
0.00361315 0 0
0.00362327 0 0
0.00362327 0 0
0.00363339 0 0
0.00363339 0 0
0.00364351 0 0
0.00364351 0 0
0.00365362 0 0
0.00365362 0 0
0.00366374 0 0
0.00366374 0 0
0.00367386 0 0
0.00367386 0 0
0.00368397 0 0
0.00368397 0 0
0.00369409 0 0
0.00369409 0 0
0.00370421 0 0
0.00370421 0 0
0.00371432 0 0
0.00371432 0 0
0.00372444 0 0
0.00372444 0 0
0.00373456 0 0
0.00373456 0 0
0.00374467 0 0
0.00374467 0 0
0.00375479 0 0
0.00375479 0 0
0.0037649 0 0
0.0037649 0 0
0.00377502 0 0
0.00377502 0 0
0.00378513 0 0
0.00378513 0 0
0.00379524 0 0
0.00379524 0 0
0.00380536 0 0
0.00380536 0 0
0.00381547 0 0
0.00381547 0 0
0.00382559 0 0
0.00382559 0 0
0.0038357 0 0
0.0038357 0 0
0.00384581 0 0
0.00384581 0 0
0.00385593 0 0
0.00385593 0 0
0.00386604 0 0
0.00386604 0 0
0.00387615 0 0
0.00387615 0 0
0.00388626 0 0
0.00388626 0 0
0.00389637 0 0
0.00389637 0 0
0.00390649 0 0
0.00390649 0 0
0.0039166 0 0
0.0039166 0 0
0.00392671 0 0
0.00392671 0 0
0.00393682 0 0
0.00393682 0 0
0.00394693 0 0
0.00394693 0 0
0.00395704 0 0
0.00395704 0 0
0.00396715 0 0
0.00396715 0 0
0.00397726 0 0
0.00397726 0 0
0.00398737 0 0
0.00398737 0 0
0.00399748 0 0
0.00399748 0 0
0.00400759 0 0
0.00400759 0 0
0.0040177 0 0
0.0040177 0 0
0.00402781 0 0
0.00402781 0 0
0.00403792 0 0
0.00403792 0 0
0.00404803 0 0
0.00404803 0 0
0.00405813 0 0
0.00405813 0 0
0.00406824 0 0
0.00406824 0 0
0.00407835 0 0
0.00407835 0 0
0.00408846 0 0
0.00408846 0 0
0.00409856 0 0
0.00409856 0 0
0.00410867 0 0
0.00410867 0 0
0.00411878 0 0
0.00411878 0 0
0.00412888 0 0
0.00412888 0 0
0.00413899 0 0
0.00413899 0 0
0.0041491 0 0
0.0041491 0 0
0.0041592 0 0
0.0041592 0 0
0.00416931 0 0
0.00416931 0 0
0.00417941 0 0
0.00417941 0 0
0.00418952 0 0
0.00418952 0 0
0.00419962 0 0
0.00419962 0 0
0.00420973 0 0
0.00420973 0 0
0.00421983 0 0
0.00421983 0 0
0.00422993 0 0
0.00422993 0 0
0.00424004 0 0
0.00424004 0 0
0.00425014 0 0
0.00425014 0 0
0.00426025 0 0
0.00426025 0 0
0.00427035 0 0
0.00427035 0 0
0.00428045 0 0
0.00428045 0 0
0.00429055 0 0
0.00429055 0 0
0.00430066 0 0
0.00430066 0 0
0.00431076 0 0
0.00431076 0 0
0.00432086 0 0
0.00432086 0 0
0.00433096 0 0
0.00433096 0 0
0.00434106 0 0
0.00434106 0 0
0.00435116 0 0
0.00435116 0 0
0.00436126 0 0
0.00436126 0 0
0.00437137 0 0
0.00437137 0 0
0.00438147 0 0
0.00438147 0 0
0.00439157 0 0
0.00439157 0 0
0.00440167 0 0
0.00440167 0 0
0.00441176 0 0
0.00441176 0 0
0.00442186 0 0
0.00442186 0 0
0.00443196 0 0
0.00443196 0 0
0.00444206 0 0
0.00444206 0 0
0.00445216 0 0
0.00445216 0 0
0.00446226 0 0
0.00446226 0 0
0.00447236 0 0
0.00447236 0 0
0.00448246 0 0
0.00448246 0 0
0.00449255 0 0
0.00449255 0 0
0.00450265 0 0
0.00450265 0 0
0.00451275 0 0
0.00451275 0 0
0.00452284 0 0
0.00452284 0 0
0.00453294 0 0
0.00453294 0 0
0.00454304 0 0
0.00454304 0 0
0.00455313 0 0
0.00455313 0 0
0.00456323 0 0
0.00456323 0 0
0.00457333 0 0
0.00457333 0 0
0.00458342 0 0
0.00458342 0 0
0.00459352 0 0
0.00459352 0 0
0.00460361 0 0
0.00460361 0 0
0.00461371 0 0
0.00461371 0 0
0.0046238 0 0
0.0046238 0 0
0.00463389 0 0
0.00463389 0 0
0.00464399 0 0
0.00464399 0 0
0.00465408 0 0
0.00465408 0 0
0.00466418 0 0
0.00466418 0 0
0.00467427 0 0
0.00467427 0 0
0.00468436 0 0
0.00468436 0 0
0.00469445 0 0
0.00469445 0 0
0.00470455 0 0
0.00470455 0 0
0.00471464 0 0
0.00471464 0 0
0.00472473 0 0
0.00472473 0 0
0.00473482 0 0
0.00473482 0 0
0.00474491 0 0
0.00474491 0 0
0.004755 0 0
0.004755 0 0
0.0047651 0 0
0.0047651 0 0
0.00477519 0 0
0.00477519 0 0
0.00478528 0 0
0.00478528 0 0
0.00479537 0 0
0.00479537 0 0
0.00480546 0 0
0.00480546 0 0
0.00481555 0 0
0.00481555 0 0
0.00482564 0 0
0.00482564 0 0
0.00483573 0 0
0.00483573 0 0
0.00484581 0 0
0.00484581 0 0
0.0048559 0 0
0.0048559 0 0
0.00486599 0 0
0.00486599 0 0
0.00487608 0 0
0.00487608 0 0
0.00488617 0 0
0.00488617 0 0
0.00489626 0 0
0.00489626 0 0
0.00490634 0 0
0.00490634 0 0
0.00491643 0 0
0.00491643 0 0
0.00492652 0 0
0.00492652 0 0
0.0049366 0 0
0.0049366 0 0
0.00494669 0 0
0.00494669 0 0
0.00495678 0 0
0.00495678 0 0
0.00496686 0 0
0.00496686 0 0
0.00497695 0 0
0.00497695 0 0
0.00498703 0 0
0.00498703 0 0
0.00499712 0 0
0.00499712 0 0
0.0050072 0 0
0.0050072 0 0
0.00501729 0 0
0.00501729 0 0
0.00502737 0 0
0.00502737 0 0
0.00503746 0 0
0.00503746 0 0
0.00504754 0 0
0.00504754 0 0
0.00505763 0 0
0.00505763 0 0
0.00506771 0 0
0.00506771 0 0
0.00507779 0 0
0.00507779 0 0
0.00508787 0 0
0.00508787 0 0
0.00509796 0 0
0.00509796 0 0
0.00510804 0 0
0.00510804 0 0
0.00511812 0 0
0.00511812 0 0
0.0051282 0 0
0.0051282 0 0
0.00513829 0 0
0.00513829 0 0
0.00514837 0 0
0.00514837 0 0
0.00515845 0 0
0.00515845 0 0
0.00516853 0 0
0.00516853 0 0
0.00517861 0 0
0.00517861 0 0
0.00518869 0 0
0.00518869 0 0
0.00519877 0 0
0.00519877 0 0
0.00520885 0 0
0.00520885 0 0
0.00521893 0 0
0.00521893 0 0
0.00522901 0 0
0.00522901 0 0
0.00523909 0 0
0.00523909 0 0
0.00524917 0 0
0.00524917 0 0
0.00525925 0 0
0.00525925 0 0
0.00526932 0 0
0.00526932 0 0
0.0052794 0 0
0.0052794 0 0
0.00528948 0 0
0.00528948 0 0
0.00529956 0 0
0.00529956 0 0
0.00530964 0 0
0.00530964 0 0
0.00531971 0 0
0.00531971 0 0
0.00532979 0 0
0.00532979 0 0
0.00533987 0 0
0.00533987 0 0
0.00534994 0 0
0.00534994 0 0
0.00536002 0 0
0.00536002 0 0
0.0053701 0 0
0.0053701 0 0
0.00538017 0 0
0.00538017 0 0
0.00539025 0 0
0.00539025 0 0
0.00540032 0 0
0.00540032 0 0
0.0054104 0 0
0.0054104 0 0
0.00542047 0 0
0.00542047 0 0
0.00543055 0 0
0.00543055 0 0
0.00544062 0 0
0.00544062 0 0
0.00545069 0 0
0.00545069 0 0
0.00546077 0 0
0.00546077 0 0
0.00547084 0 0
0.00547084 0 0
0.00548092 0 0
0.00548092 0 0
0.00549099 0 0
0.00549099 0 0
0.00550106 0 0
0.00550106 0 0
0.00551113 0 0
0.00551113 0 0
0.00552121 0 0
0.00552121 0 0
0.00553128 0 0
0.00553128 0 0
0.00554135 0 0
0.00554135 0 0
0.00555142 0 0
0.00555142 0 0
0.00556149 0 0
0.00556149 0 0
0.00557156 0 0
0.00557156 0 0
0.00558163 0 0
0.00558163 0 0
0.0055917 0 0
0.0055917 0 0
0.00560177 0 0
0.00560177 0 0
0.00561184 0 0
0.00561184 0 0
0.00562191 0 0
0.00562191 0 0
0.00563198 0 0
0.00563198 0 0
0.00564205 0 0
0.00564205 0 0
0.00565212 0 0
0.00565212 0 0
0.00566219 0 0
0.00566219 0 0
0.00567226 0 0
0.00567226 0 0
0.00568233 0 0
0.00568233 0 0
0.0056924 0 0
0.0056924 0 0
0.00570246 0 0
0.00570246 0 0
0.00571253 0 0
0.00571253 0 0
0.0057226 0 0
0.0057226 0 0
0.00573267 0 0
0.00573267 0 0
0.00574273 0 0
0.00574273 0 0
0.0057528 0 0
0.0057528 0 0
0.00576287 0 0
0.00576287 0 0
0.00577293 0 0
0.00577293 0 0
0.005783 0 0
0.005783 0 0
0.00579306 0 0
0.00579306 0 0
0.00580313 0 0
0.00580313 0 0
0.00581319 0 0
0.00581319 0 0
0.00582326 0 0
0.00582326 0 0
0.00583332 0 0
0.00583332 0 0
0.00584339 0 0
0.00584339 0 0
0.00585345 0 0
0.00585345 0 0
0.00586351 0 0
0.00586351 0 0
0.00587358 0 0
0.00587358 0 0
0.00588364 0 0
0.00588364 0 0
0.0058937 0 0
0.0058937 0 0
0.00590377 0 0
0.00590377 0 0
0.00591383 0 0
0.00591383 0 0
0.00592389 0 0
0.00592389 0 0
0.00593395 0 0
0.00593395 0 0
0.00594402 0 0
0.00594402 0 0
0.00595408 0 0
0.00595408 0 0
0.00596414 0 0
0.00596414 0 0
0.0059742 0 0
0.0059742 0 0
0.00598426 0 0
0.00598426 0 0
0.00599432 0 0
0.00599432 0 0
0.00600438 0 0
0.00600438 0 0
0.00601444 0 0
0.00601444 0 0
0.0060245 0 0
0.0060245 0 0
0.00603456 0 0
0.00603456 0 0
0.00604462 0 0
0.00604462 0 0
0.00605468 0 0
0.00605468 0 0
0.00606474 0 0
0.00606474 0 0
0.0060748 0 0
0.0060748 0 0
0.00608486 0 0
0.00608486 0 0
0.00609492 0 0
0.00609492 0 0
0.00610498 0 0
0.00610498 0 0
0.00611503 0 0
0.00611503 0 0
0.00612509 0 0
0.00612509 0 0
0.00613515 0 0
0.00613515 0 0
0.0061452 0 0
0.0061452 0 0
0.00615526 0 0
0.00615526 0 0
0.00616532 0 0
0.00616532 0 0
0.00617537 0 0
0.00617537 0 0
0.00618543 0 0
0.00618543 0 0
0.00619549 0 0
0.00619549 0 0
0.00620554 0 0
0.00620554 0 0
0.0062156 0 0
0.0062156 0 0
0.00622565 0 0
0.00622565 0 0
0.00623571 0 0
0.00623571 0 0
0.00624576 0 0
0.00624576 0 0
0.00625582 0 0
0.00625582 0 0
0.00626587 0 0
0.00626587 0 0
0.00627593 0 0
0.00627593 0 0
0.00628598 0 0
0.00628598 0 0
0.00629603 0 0
0.00629603 0 0
0.00630609 0 0
0.00630609 0 0
0.00631614 0 0
0.00631614 0 0
0.00632619 0 0
0.00632619 0 0
0.00633624 0 0
0.00633624 0 0
0.0063463 0 0
0.0063463 0 0
0.00635635 0 0
0.00635635 0 0
0.0063664 0 0
0.0063664 0 0
0.00637645 0 0
0.00637645 0 0
0.0063865 0 0
0.0063865 0 0
0.00639656 0 0
0.00639656 0 0
0.00640661 0 0
0.00640661 0 0
0.00641666 0 0
0.00641666 0 0
0.00642671 0 0
0.00642671 0 0
0.00643676 0 0
0.00643676 0 0
0.00644681 0 0
0.00644681 0 0
0.00645686 0 0
0.00645686 0 0
0.00646691 0 0
0.00646691 0 0
0.00647696 0 0
0.00647696 0 0
0.00648701 0 0
0.00648701 0 0
0.00649705 0 0
0.00649705 0 0
0.0065071 0 0
0.0065071 0 0
0.00651715 0 0
0.00651715 0 0
0.0065272 0 0
0.0065272 0 0
0.00653725 0 0
0.00653725 0 0
0.0065473 0 0
0.0065473 0 0
0.00655734 0 0
0.00655734 0 0
0.00656739 0 0
0.00656739 0 0
0.00657744 0 0
0.00657744 0 0
0.00658748 0 0
0.00658748 0 0
0.00659753 0 0
0.00659753 0 0
0.00660758 0 0
0.00660758 0 0
0.00661762 0 0
0.00661762 0 0
0.00662767 0 0
0.00662767 0 0
0.00663772 0 0
0.00663772 0 0
0.00664776 0 0
0.00664776 0 0
0.00665781 0 0
0.00665781 0 0
0.00666785 0 0
0.00666785 0 0
0.0066779 0 0
0.0066779 0 0
0.00668794 0 0
0.00668794 0 0
0.00669799 0 0
0.00669799 0 0
0.00670803 0 0
0.00670803 0 0
0.00671807 0 0
0.00671807 0 0