# vtk DataFile Version 3.0
#This file was generated by the deal.II library on 2018/10/23 at 21:58:53
ASCII
DATASET UNSTRUCTURED_GRID

POINTS 2000 double
0 0 0
0.0001 0 0
0.0001 0 0
0.0002 0 0
0.0002 0 0
0.0003 0 0
0.0003 0 0
0.0004 0 0
0.0004 0 0
0.0005 0 0
0.0005 0 0
0.0006 0 0
0.0006 0 0
0.0007 0 0
0.0007 0 0
0.0008 0 0
0.0008 0 0
0.0009 0 0
0.0009 0 0
0.001 0 0
0.001 0 0
0.0011 0 0
0.0011 0 0
0.0012 0 0
0.0012 0 0
0.0013 0 0
0.0013 0 0
0.0014 0 0
0.0014 0 0
0.0015 0 0
0.0015 0 0
0.0016 0 0
0.0016 0 0
0.0017 0 0
0.0017 0 0
0.0018 0 0
0.0018 0 0
0.0019 0 0
0.0019 0 0
0.002 0 0
0.002 0 0
0.0021 0 0
0.0021 0 0
0.0022 0 0
0.0022 0 0
0.0023 0 0
0.0023 0 0
0.0024 0 0
0.0024 0 0
0.0025 0 0
0.0025 0 0
0.0026 0 0
0.0026 0 0
0.0027 0 0
0.0027 0 0
0.0028 0 0
0.0028 0 0
0.0029 0 0
0.0029 0 0
0.003 0 0
0.003 0 0
0.0031 0 0
0.0031 0 0
0.0032 0 0
0.0032 0 0
0.0033 0 0
0.0033 0 0
0.0034 0 0
0.0034 0 0
0.0035 0 0
0.0035 0 0
0.0036 0 0
0.0036 0 0
0.0037 0 0
0.0037 0 0
0.0038 0 0
0.0038 0 0
0.0039 0 0
0.0039 0 0
0.004 0 0
0.004 0 0
0.0041 0 0
0.0041 0 0
0.0042 0 0
0.0042 0 0
0.0043 0 0
0.0043 0 0
0.0044 0 0
0.0044 0 0
0.0045 0 0
0.0045 0 0
0.0046 0 0
0.0046 0 0
0.0047 0 0
0.0047 0 0
0.0048 0 0
0.0048 0 0
0.0049 0 0
0.0049 0 0
0.005 0 0
0.005 0 0
0.0051 0 0
0.0051 0 0
0.0052 0 0
0.0052 0 0
0.0053 0 0
0.0053 0 0
0.0054 0 0
0.0054 0 0
0.0055 0 0
0.0055 0 0
0.0056 0 0
0.0056 0 0
0.0057 0 0
0.0057 0 0
0.0058 0 0
0.0058 0 0
0.0059 0 0
0.0059 0 0
0.006 0 0
0.006 0 0
0.0061 0 0
0.0061 0 0
0.0062 0 0
0.0062 0 0
0.0063 0 0
0.0063 0 0
0.0064 0 0
0.0064 0 0
0.0065 0 0
0.0065 0 0
0.0066 0 0
0.0066 0 0
0.0067 0 0
0.0067 0 0
0.0068 0 0
0.0068 0 0
0.0069 0 0
0.0069 0 0
0.007 0 0
0.007 0 0
0.0071 0 0
0.0071 0 0
0.0072 0 0
0.0072 0 0
0.0073 0 0
0.0073 0 0
0.0074 0 0
0.0074 0 0
0.0075 0 0
0.0075 0 0
0.0076 0 0
0.0076 0 0
0.0077 0 0
0.0077 0 0
0.0078 0 0
0.0078 0 0
0.0079 0 0
0.0079 0 0
0.008 0 0
0.008 0 0
0.0081 0 0
0.0081 0 0
0.0082 0 0
0.0082 0 0
0.0083 0 0
0.0083 0 0
0.0084 0 0
0.0084 0 0
0.0085 0 0
0.0085 0 0
0.0086 0 0
0.0086 0 0
0.0087 0 0
0.0087 0 0
0.0088 0 0
0.0088 0 0
0.0089 0 0
0.0089 0 0
0.009 0 0
0.009 0 0
0.0091 0 0
0.0091 0 0
0.0092 0 0
0.0092 0 0
0.0093 0 0
0.0093 0 0
0.0094 0 0
0.0094 0 0
0.0095 0 0
0.0095 0 0
0.0096 0 0
0.0096 0 0
0.0097 0 0
0.0097 0 0
0.0098 0 0
0.0098 0 0
0.0099 0 0
0.0099 0 0
0.01 0 0
0.01 0 0
0.0101 0 0
0.0101 0 0
0.0102 0 0
0.0102 0 0
0.0103 0 0
0.0103 0 0
0.0104 0 0
0.0104 0 0
0.0105 0 0
0.0105 0 0
0.0106 0 0
0.0106 0 0
0.0107 0 0
0.0107 0 0
0.0108 0 0
0.0108 0 0
0.0109 0 0
0.0109 0 0
0.011 0 0
0.011 0 0
0.0111 0 0
0.0111 0 0
0.0112 0 0
0.0112 0 0
0.0113 0 0
0.0113 0 0
0.0114 0 0
0.0114 0 0
0.0115 0 0
0.0115 0 0
0.0116 0 0
0.0116 0 0
0.0117 0 0
0.0117 0 0
0.0118 0 0
0.0118 0 0
0.0119 0 0
0.0119 0 0
0.012 0 0
0.012 0 0
0.0121 0 0
0.0121 0 0
0.0122 0 0
0.0122 0 0
0.0123 0 0
0.0123 0 0
0.0124 0 0
0.0124 0 0
0.0125 0 0
0.0125 0 0
0.0126 0 0
0.0126 0 0
0.0127 0 0
0.0127 0 0
0.0128 0 0
0.0128 0 0
0.0129 0 0
0.0129 0 0
0.013 0 0
0.013 0 0
0.0131 0 0
0.0131 0 0
0.0132 0 0
0.0132 0 0
0.0133 0 0
0.0133 0 0
0.0134 0 0
0.0134 0 0
0.0135 0 0
0.0135 0 0
0.0136 0 0
0.0136 0 0
0.0137 0 0
0.0137 0 0
0.0138 0 0
0.0138 0 0
0.0139 0 0
0.0139 0 0
0.014 0 0
0.014 0 0
0.0141 0 0
0.0141 0 0
0.0142 0 0
0.0142 0 0
0.0143 0 0
0.0143 0 0
0.0144 0 0
0.0144 0 0
0.0145 0 0
0.0145 0 0
0.0146 0 0
0.0146 0 0
0.0147 0 0
0.0147 0 0
0.0148 0 0
0.0148 0 0
0.0149 0 0
0.0149 0 0
0.015 0 0
0.015 0 0
0.0151 0 0
0.0151 0 0
0.0152 0 0
0.0152 0 0
0.0153 0 0
0.0153 0 0
0.0154 0 0
0.0154 0 0
0.0155 0 0
0.0155 0 0
0.0156 0 0
0.0156 0 0
0.0157 0 0
0.0157 0 0
0.0158 0 0
0.0158 0 0
0.0159 0 0
0.0159 0 0
0.016 0 0
0.016 0 0
0.0161 0 0
0.0161 0 0
0.0162 0 0
0.0162 0 0
0.0163 0 0
0.0163 0 0
0.0164 0 0
0.0164 0 0
0.0165 0 0
0.0165 0 0
0.0166 0 0
0.0166 0 0
0.0167 0 0
0.0167 0 0
0.0168 0 0
0.0168 0 0
0.0169 0 0
0.0169 0 0
0.017 0 0
0.017 0 0
0.0171 0 0
0.0171 0 0
0.0172 0 0
0.0172 0 0
0.0173 0 0
0.0173 0 0
0.0174 0 0
0.0174 0 0
0.0175 0 0
0.0175 0 0
0.0176 0 0
0.0176 0 0
0.0177 0 0
0.0177 0 0
0.0178 0 0
0.0178 0 0
0.0179 0 0
0.0179 0 0
0.018 0 0
0.018 0 0
0.0181 0 0
0.0181 0 0
0.0182 0 0
0.0182 0 0
0.0183 0 0
0.0183 0 0
0.0184 0 0
0.0184 0 0
0.0185 0 0
0.0185 0 0
0.0186 0 0
0.0186 0 0
0.0187 0 0
0.0187 0 0
0.0188 0 0
0.0188 0 0
0.0189 0 0
0.0189 0 0
0.019 0 0
0.019 0 0
0.0191 0 0
0.0191 0 0
0.0192 0 0
0.0192 0 0
0.0193 0 0
0.0193 0 0
0.0194 0 0
0.0194 0 0
0.0195 0 0
0.0195 0 0
0.0196 0 0
0.0196 0 0
0.0197 0 0
0.0197 0 0
0.0198 0 0
0.0198 0 0
0.0199 0 0
0.0199 0 0
0.02 0 0
0.02 0 0
0.0201 0 0
0.0201 0 0
0.0202 0 0
0.0202 0 0
0.0203 0 0
0.0203 0 0
0.0204 0 0
0.0204 0 0
0.0205 0 0
0.0205 0 0
0.0206 0 0
0.0206 0 0
0.0207 0 0
0.0207 0 0
0.0208 0 0
0.0208 0 0
0.0209 0 0
0.0209 0 0
0.021 0 0
0.021 0 0
0.0211 0 0
0.0211 0 0
0.0212 0 0
0.0212 0 0
0.0213 0 0
0.0213 0 0
0.0214 0 0
0.0214 0 0
0.0215 0 0
0.0215 0 0
0.0216 0 0
0.0216 0 0
0.0217 0 0
0.0217 0 0
0.0218 0 0
0.0218 0 0
0.0219 0 0
0.0219 0 0
0.022 0 0
0.022 0 0
0.0221 0 0
0.0221 0 0
0.0222 0 0
0.0222 0 0
0.0223 0 0
0.0223 0 0
0.0224 0 0
0.0224 0 0
0.0225 0 0
0.0225 0 0
0.0226 0 0
0.0226 0 0
0.0227 0 0
0.0227 0 0
0.0228 0 0
0.0228 0 0
0.0229 0 0
0.0229 0 0
0.023 0 0
0.023 0 0
0.0231 0 0
0.0231 0 0
0.0232 0 0
0.0232 0 0
0.0233 0 0
0.0233 0 0
0.0234 0 0
0.0234 0 0
0.0235 0 0
0.0235 0 0
0.0236 0 0
0.0236 0 0
0.0237 0 0
0.0237 0 0
0.0238 0 0
0.0238 0 0
0.0239 0 0
0.0239 0 0
0.024 0 0
0.024 0 0
0.0241 0 0
0.0241 0 0
0.0242 0 0
0.0242 0 0
0.0243 0 0
0.0243 0 0
0.0244 0 0
0.0244 0 0
0.0245 0 0
0.0245 0 0
0.0246 0 0
0.0246 0 0
0.0247 0 0
0.0247 0 0
0.0248 0 0
0.0248 0 0
0.0249 0 0
0.0249 0 0
0.025 0 0
0.025 0 0
0.0251 0 0
0.0251 0 0
0.0252 0 0
0.0252 0 0
0.0253 0 0
0.0253 0 0
0.0254 0 0
0.0254 0 0
0.0255 0 0
0.0255 0 0
0.0256 0 0
0.0256 0 0
0.0257 0 0
0.0257 0 0
0.0258 0 0
0.0258 0 0
0.0259 0 0
0.0259 0 0
0.026 0 0
0.026 0 0
0.0261 0 0
0.0261 0 0
0.0262 0 0
0.0262 0 0
0.0263 0 0
0.0263 0 0
0.0264 0 0
0.0264 0 0
0.0265 0 0
0.0265 0 0
0.0266 0 0
0.0266 0 0
0.0267 0 0
0.0267 0 0
0.0268 0 0
0.0268 0 0
0.0269 0 0
0.0269 0 0
0.027 0 0
0.027 0 0
0.0271 0 0
0.0271 0 0
0.0272 0 0
0.0272 0 0
0.0273 0 0
0.0273 0 0
0.0274 0 0
0.0274 0 0
0.0275 0 0
0.0275 0 0
0.0276 0 0
0.0276 0 0
0.0277 0 0
0.0277 0 0
0.0278 0 0
0.0278 0 0
0.0279 0 0
0.0279 0 0
0.028 0 0
0.028 0 0
0.0281 0 0
0.0281 0 0
0.0282 0 0
0.0282 0 0
0.0283 0 0
0.0283 0 0
0.0284 0 0
0.0284 0 0
0.0285 0 0
0.0285 0 0
0.0286 0 0
0.0286 0 0
0.0287 0 0
0.0287 0 0
0.0288 0 0
0.0288 0 0
0.0289 0 0
0.0289 0 0
0.029 0 0
0.029 0 0
0.0291 0 0
0.0291 0 0
0.0292 0 0
0.0292 0 0
0.0293 0 0
0.0293 0 0
0.0294 0 0
0.0294 0 0
0.0295 0 0
0.0295 0 0
0.0296 0 0
0.0296 0 0
0.0297 0 0
0.0297 0 0
0.0298 0 0
0.0298 0 0
0.0299 0 0
0.0299 0 0
0.03 0 0
0.03 0 0
0.0301 0 0
0.0301 0 0
0.0302 0 0
0.0302 0 0
0.0303 0 0
0.0303 0 0
0.0304 0 0
0.0304 0 0
0.0305 0 0
0.0305 0 0
0.0306 0 0
0.0306 0 0
0.0307 0 0
0.0307 0 0
0.0308 0 0
0.0308 0 0
0.0309 0 0
0.0309 0 0
0.031 0 0
0.031 0 0
0.0311 0 0
0.0311 0 0
0.0312 0 0
0.0312 0 0
0.0313 0 0
0.0313 0 0
0.0314 0 0
0.0314 0 0
0.0315 0 0
0.0315 0 0
0.0316 0 0
0.0316 0 0
0.0317 0 0
0.0317 0 0
0.0318 0 0
0.0318 0 0
0.0319 0 0
0.0319 0 0
0.032 0 0
0.032 0 0
0.0321 0 0
0.0321 0 0
0.0322 0 0
0.0322 0 0
0.0323 0 0
0.0323 0 0
0.0324 0 0
0.0324 0 0
0.0325 0 0
0.0325 0 0
0.0326 0 0
0.0326 0 0
0.0327 0 0
0.0327 0 0
0.0328 0 0
0.0328 0 0
0.0329 0 0
0.0329 0 0
0.033 0 0
0.033 0 0
0.0331 0 0
0.0331 0 0
0.0332 0 0
0.0332 0 0
0.0333 0 0
0.0333 0 0
0.0334 0 0
0.0334 0 0
0.0335 0 0
0.0335 0 0
0.0336 0 0
0.0336 0 0
0.0337 0 0
0.0337 0 0
0.0338 0 0
0.0338 0 0
0.0339 0 0
0.0339 0 0
0.034 0 0
0.034 0 0
0.0341 0 0
0.0341 0 0
0.0342 0 0
0.0342 0 0
0.0343 0 0
0.0343 0 0
0.0344 0 0
0.0344 0 0
0.0345 0 0
0.0345 0 0
0.0346 0 0
0.0346 0 0
0.0347 0 0
0.0347 0 0
0.0348 0 0
0.0348 0 0
0.0349 0 0
0.0349 0 0
0.035 0 0
0.035 0 0
0.0351 0 0
0.0351 0 0
0.0352 0 0
0.0352 0 0
0.0353 0 0
0.0353 0 0
0.0354 0 0
0.0354 0 0
0.0355 0 0
0.0355 0 0
0.0356 0 0
0.0356 0 0
0.0357 0 0
0.0357 0 0
0.0358 0 0
0.0358 0 0
0.0359 0 0
0.0359 0 0
0.036 0 0
0.036 0 0
0.0361 0 0
0.0361 0 0
0.0362 0 0
0.0362 0 0
0.0363 0 0
0.0363 0 0
0.0364 0 0
0.0364 0 0
0.0365 0 0
0.0365 0 0
0.0366 0 0
0.0366 0 0
0.0367 0 0
0.0367 0 0
0.0368 0 0
0.0368 0 0
0.0369 0 0
0.0369 0 0
0.037 0 0
0.037 0 0
0.0371 0 0
0.0371 0 0
0.0372 0 0
0.0372 0 0
0.0373 0 0
0.0373 0 0
0.0374 0 0
0.0374 0 0
0.0375 0 0
0.0375 0 0
0.0376 0 0
0.0376 0 0
0.0377 0 0
0.0377 0 0
0.0378 0 0
0.0378 0 0
0.0379 0 0
0.0379 0 0
0.038 0 0
0.038 0 0
0.0381 0 0
0.0381 0 0
0.0382 0 0
0.0382 0 0
0.0383 0 0
0.0383 0 0
0.0384 0 0
0.0384 0 0
0.0385 0 0
0.0385 0 0
0.0386 0 0
0.0386 0 0
0.0387 0 0
0.0387 0 0
0.0388 0 0
0.0388 0 0
0.0389 0 0
0.0389 0 0
0.039 0 0
0.039 0 0
0.0391 0 0
0.0391 0 0
0.0392 0 0
0.0392 0 0
0.0393 0 0
0.0393 0 0
0.0394 0 0
0.0394 0 0
0.0395 0 0
0.0395 0 0
0.0396 0 0
0.0396 0 0
0.0397 0 0
0.0397 0 0
0.0398 0 0
0.0398 0 0
0.0399 0 0
0.0399 0 0
0.04 0 0
0.04 0 0
0.0401 0 0
0.0401 0 0
0.0402 0 0
0.0402 0 0
0.0403 0 0
0.0403 0 0
0.0404 0 0
0.0404 0 0
0.0405 0 0
0.0405 0 0
0.0406 0 0
0.0406 0 0
0.0407 0 0
0.0407 0 0
0.0408 0 0
0.0408 0 0
0.0409 0 0
0.0409 0 0
0.041 0 0
0.041 0 0
0.0411 0 0
0.0411 0 0
0.0412 0 0
0.0412 0 0
0.0413 0 0
0.0413 0 0
0.0414 0 0
0.0414 0 0
0.0415 0 0
0.0415 0 0
0.0416 0 0
0.0416 0 0
0.0417 0 0
0.0417 0 0
0.0418 0 0
0.0418 0 0
0.0419 0 0
0.0419 0 0
0.042 0 0
0.042 0 0
0.0421 0 0
0.0421 0 0
0.0422 0 0
0.0422 0 0
0.0423 0 0
0.0423 0 0
0.0424 0 0
0.0424 0 0
0.0425 0 0
0.0425 0 0
0.0426 0 0
0.0426 0 0
0.0427 0 0
0.0427 0 0
0.0428 0 0
0.0428 0 0
0.0429 0 0
0.0429 0 0
0.043 0 0
0.043 0 0
0.0431 0 0
0.0431 0 0
0.0432 0 0
0.0432 0 0
0.0433 0 0
0.0433 0 0
0.0434 0 0
0.0434 0 0
0.0435 0 0
0.0435 0 0
0.0436 0 0
0.0436 0 0
0.0437 0 0
0.0437 0 0
0.0438 0 0
0.0438 0 0
0.0439 0 0
0.0439 0 0
0.044 0 0
0.044 0 0
0.0441 0 0
0.0441 0 0
0.0442 0 0
0.0442 0 0
0.0443 0 0
0.0443 0 0
0.0444 0 0
0.0444 0 0
0.0445 0 0
0.0445 0 0
0.0446 0 0
0.0446 0 0
0.0447 0 0
0.0447 0 0
0.0448 0 0
0.0448 0 0
0.0449 0 0
0.0449 0 0
0.045 0 0
0.045 0 0
0.0451 0 0
0.0451 0 0
0.0452 0 0
[...]
POINT_DATA 2000
VECTORS u double
0 0 0
1.05e-05 0 0
1.05e-05 0 0
2.1e-05 0 0
2.1e-05 0 0
3.15e-05 0 0
3.15e-05 0 0
4.2e-05 0 0
4.2e-05 0 0
5.25e-05 0 0
5.25e-05 0 0
6.3e-05 0 0
6.3e-05 0 0
7.34999e-05 0 0
7.34999e-05 0 0
8.39999e-05 0 0
8.39999e-05 0 0
9.44999e-05 0 0
9.44999e-05 0 0
0.000105 0 0
0.000105 0 0
0.0001155 0 0
0.0001155 0 0
0.000126 0 0
0.000126 0 0
0.0001365 0 0
0.0001365 0 0
0.000147 0 0
0.000147 0 0
0.000157499 0 0
0.000157499 0 0
0.000167999 0 0
0.000167999 0 0
0.000178499 0 0
0.000178499 0 0
0.000188999 0 0
0.000188999 0 0
0.000199499 0 0
0.000199499 0 0
0.000209999 0 0
0.000209999 0 0
0.000220498 0 0
0.000220498 0 0
0.000230998 0 0
0.000230998 0 0
0.000241498 0 0
0.000241498 0 0
0.000251998 0 0
0.000251998 0 0
0.000262497 0 0
0.000262497 0 0
0.000272997 0 0
0.000272997 0 0
0.000283497 0 0
0.000283497 0 0
0.000293996 0 0
0.000293996 0 0
0.000304496 0 0
0.000304496 0 0
0.000314996 0 0
0.000314996 0 0
0.000325495 0 0
0.000325495 0 0
0.000335995 0 0
0.000335995 0 0
0.000346494 0 0
0.000346494 0 0
0.000356993 0 0
0.000356993 0 0
0.000367493 0 0
0.000367493 0 0
0.000377992 0 0
0.000377992 0 0
0.000388492 0 0
0.000388492 0 0
0.000398991 0 0
0.000398991 0 0
0.00040949 0 0
0.00040949 0 0
0.000419989 0 0
0.000419989 0 0
0.000430489 0 0
0.000430489 0 0
0.000440988 0 0
0.000440988 0 0
0.000451487 0 0
0.000451487 0 0
0.000461986 0 0
0.000461986 0 0
0.000472485 0 0
0.000472485 0 0
0.000482984 0 0
0.000482984 0 0
0.000493483 0 0
0.000493483 0 0
0.000503982 0 0
0.000503982 0 0
0.00051448 0 0
0.00051448 0 0
0.000524979 0 0
0.000524979 0 0
0.000535478 0 0
0.000535478 0 0
0.000545977 0 0
0.000545977 0 0
0.000556475 0 0
0.000556475 0 0
0.000566974 0 0
0.000566974 0 0
0.000577472 0 0
0.000577472 0 0
0.000587971 0 0
0.000587971 0 0
0.000598469 0 0
0.000598469 0 0
0.000608968 0 0
0.000608968 0 0
0.000619466 0 0
0.000619466 0 0
0.000629964 0 0
0.000629964 0 0
0.000640462 0 0
0.000640462 0 0
0.00065096 0 0
0.00065096 0 0
0.000661458 0 0
0.000661458 0 0
0.000671956 0 0
0.000671956 0 0
0.000682454 0 0
0.000682454 0 0
0.000692952 0 0
0.000692952 0 0
0.00070345 0 0
0.00070345 0 0
0.000713948 0 0
0.000713948 0 0
0.000724445 0 0
0.000724445 0 0
0.000734943 0 0
0.000734943 0 0
0.00074544 0 0
0.00074544 0 0
0.000755938 0 0
0.000755938 0 0
0.000766435 0 0
0.000766435 0 0
0.000776932 0 0
0.000776932 0 0
0.00078743 0 0
0.00078743 0 0
0.000797927 0 0
0.000797927 0 0
0.000808424 0 0
0.000808424 0 0
0.000818921 0 0
0.000818921 0 0
0.000829418 0 0
0.000829418 0 0
0.000839915 0 0
0.000839915 0 0
0.000850411 0 0
0.000850411 0 0
0.000860908 0 0
0.000860908 0 0
0.000871405 0 0
0.000871405 0 0
0.000881901 0 0
0.000881901 0 0
0.000892398 0 0
0.000892398 0 0
0.000902894 0 0
0.000902894 0 0
0.00091339 0 0
0.00091339 0 0
0.000923886 0 0
0.000923886 0 0
0.000934382 0 0
0.000934382 0 0
0.000944878 0 0
0.000944878 0 0
0.000955374 0 0
0.000955374 0 0
0.00096587 0 0
0.00096587 0 0
0.000976366 0 0
0.000976366 0 0
0.000986862 0 0
0.000986862 0 0
0.000997357 0 0
0.000997357 0 0
0.00100785 0 0
0.00100785 0 0
0.00101835 0 0
0.00101835 0 0
0.00102884 0 0
0.00102884 0 0
0.00103934 0 0
0.00103934 0 0
0.00104983 0 0
0.00104983 0 0
0.00106033 0 0
0.00106033 0 0
0.00107082 0 0
0.00107082 0 0
0.00108132 0 0
0.00108132 0 0
0.00109181 0 0
0.00109181 0 0
0.00110231 0 0
0.00110231 0 0
0.0011128 0 0
0.0011128 0 0
0.0011233 0 0
0.0011233 0 0
0.00113379 0 0
0.00113379 0 0
0.00114428 0 0
0.00114428 0 0
0.00115478 0 0
0.00115478 0 0
0.00116527 0 0
0.00116527 0 0
0.00117577 0 0
0.00117577 0 0
0.00118626 0 0
0.00118626 0 0
0.00119675 0 0
0.00119675 0 0
0.00120725 0 0
0.00120725 0 0
0.00121774 0 0
0.00121774 0 0
0.00122823 0 0
0.00122823 0 0
0.00123873 0 0
0.00123873 0 0
0.00124922 0 0
0.00124922 0 0
0.00125971 0 0
0.00125971 0 0
0.0012702 0 0
0.0012702 0 0
0.0012807 0 0
0.0012807 0 0
0.00129119 0 0
0.00129119 0 0
0.00130168 0 0
0.00130168 0 0
0.00131217 0 0
0.00131217 0 0
0.00132267 0 0
0.00132267 0 0
0.00133316 0 0
0.00133316 0 0
0.00134365 0 0
0.00134365 0 0
0.00135414 0 0
0.00135414 0 0
0.00136463 0 0
0.00136463 0 0
0.00137513 0 0
0.00137513 0 0
0.00138562 0 0
0.00138562 0 0
0.00139611 0 0
0.00139611 0 0
0.0014066 0 0
0.0014066 0 0
0.00141709 0 0
0.00141709 0 0
0.00142758 0 0
0.00142758 0 0
0.00143807 0 0
0.00143807 0 0
0.00144856 0 0
0.00144856 0 0
0.00145905 0 0
0.00145905 0 0
0.00146954 0 0
0.00146954 0 0
0.00148003 0 0
0.00148003 0 0
0.00149052 0 0
0.00149052 0 0
0.00150101 0 0
0.00150101 0 0
0.0015115 0 0
0.0015115 0 0
0.00152199 0 0
0.00152199 0 0
0.00153248 0 0
0.00153248 0 0
0.00154297 0 0
0.00154297 0 0
0.00155346 0 0
0.00155346 0 0
0.00156395 0 0
0.00156395 0 0
0.00157444 0 0
0.00157444 0 0
0.00158493 0 0
0.00158493 0 0
0.00159541 0 0
0.00159541 0 0
0.0016059 0 0
0.0016059 0 0
0.00161639 0 0
0.00161639 0 0
0.00162688 0 0
0.00162688 0 0
0.00163737 0 0
0.00163737 0 0
0.00164786 0 0
0.00164786 0 0
0.00165834 0 0
0.00165834 0 0
0.00166883 0 0
0.00166883 0 0
0.00167932 0 0
0.00167932 0 0
0.0016898 0 0
0.0016898 0 0
0.00170029 0 0
0.00170029 0 0
0.00171078 0 0
0.00171078 0 0
0.00172126 0 0
0.00172126 0 0
0.00173175 0 0
0.00173175 0 0
0.00174224 0 0
0.00174224 0 0
0.00175272 0 0
0.00175272 0 0
0.00176321 0 0
0.00176321 0 0
0.0017737 0 0
0.0017737 0 0
0.00178418 0 0
0.00178418 0 0
0.00179467 0 0
0.00179467 0 0
0.00180515 0 0
0.00180515 0 0
0.00181564 0 0
0.00181564 0 0
0.00182612 0 0
0.00182612 0 0
0.00183661 0 0
0.00183661 0 0
0.00184709 0 0
0.00184709 0 0
0.00185758 0 0
0.00185758 0 0
0.00186806 0 0
0.00186806 0 0
0.00187854 0 0
0.00187854 0 0
0.00188903 0 0
0.00188903 0 0
0.00189951 0 0
0.00189951 0 0
0.00191 0 0
0.00191 0 0
0.00192048 0 0
0.00192048 0 0
0.00193096 0 0
0.00193096 0 0
0.00194144 0 0
0.00194144 0 0
0.00195193 0 0
0.00195193 0 0
0.00196241 0 0
0.00196241 0 0
0.00197289 0 0
0.00197289 0 0
0.00198337 0 0
0.00198337 0 0
0.00199386 0 0
0.00199386 0 0
0.00200434 0 0
0.00200434 0 0
0.00201482 0 0
0.00201482 0 0
0.0020253 0 0
0.0020253 0 0
0.00203578 0 0
0.00203578 0 0
0.00204626 0 0
0.00204626 0 0
0.00205675 0 0
0.00205675 0 0
0.00206723 0 0
0.00206723 0 0
0.00207771 0 0
0.00207771 0 0
0.00208819 0 0
0.00208819 0 0
0.00209867 0 0
0.00209867 0 0
0.00210915 0 0
0.00210915 0 0
0.00211963 0 0
0.00211963 0 0
0.00213011 0 0
0.00213011 0 0
0.00214059 0 0
0.00214059 0 0
0.00215106 0 0
0.00215106 0 0
0.00216154 0 0
0.00216154 0 0
0.00217202 0 0
0.00217202 0 0
0.0021825 0 0
0.0021825 0 0
0.00219298 0 0
0.00219298 0 0
0.00220346 0 0
0.00220346 0 0
0.00221393 0 0
0.00221393 0 0
0.00222441 0 0
0.00222441 0 0
0.00223489 0 0
0.00223489 0 0
0.00224537 0 0
0.00224537 0 0
0.00225584 0 0
0.00225584 0 0
0.00226632 0 0
0.00226632 0 0
0.0022768 0 0
0.0022768 0 0
0.00228727 0 0
0.00228727 0 0
0.00229775 0 0
0.00229775 0 0
0.00230823 0 0
0.00230823 0 0
0.0023187 0 0
0.0023187 0 0
0.00232918 0 0
0.00232918 0 0
0.00233965 0 0
0.00233965 0 0
0.00235013 0 0
0.00235013 0 0
0.0023606 0 0
0.0023606 0 0
0.00237108 0 0
0.00237108 0 0
0.00238155 0 0
0.00238155 0 0
0.00239202 0 0
0.00239202 0 0
0.0024025 0 0
0.0024025 0 0
0.00241297 0 0
0.00241297 0 0
0.00242345 0 0
0.00242345 0 0
0.00243392 0 0
0.00243392 0 0
0.00244439 0 0
0.00244439 0 0
0.00245486 0 0
0.00245486 0 0
0.00246534 0 0
0.00246534 0 0
0.00247581 0 0
0.00247581 0 0
0.00248628 0 0
0.00248628 0 0
0.00249675 0 0
0.00249675 0 0
0.00250722 0 0
0.00250722 0 0
0.0025177 0 0
0.0025177 0 0
0.00252817 0 0
0.00252817 0 0
0.00253864 0 0
0.00253864 0 0
0.00254911 0 0
0.00254911 0 0
0.00255958 0 0
0.00255958 0 0
0.00257005 0 0
0.00257005 0 0
0.00258052 0 0
0.00258052 0 0
0.00259099 0 0
0.00259099 0 0
0.00260146 0 0
0.00260146 0 0
0.00261193 0 0
0.00261193 0 0
0.0026224 0 0
0.0026224 0 0
0.00263286 0 0
0.00263286 0 0
0.00264333 0 0
0.00264333 0 0
0.0026538 0 0
0.0026538 0 0
0.00266427 0 0
0.00266427 0 0
0.00267474 0 0
0.00267474 0 0
0.0026852 0 0
0.0026852 0 0
0.00269567 0 0
0.00269567 0 0
0.00270614 0 0
0.00270614 0 0
0.0027166 0 0
0.0027166 0 0
0.00272707 0 0
0.00272707 0 0
0.00273754 0 0
0.00273754 0 0
0.002748 0 0
0.002748 0 0
0.00275847 0 0
0.00275847 0 0
0.00276893 0 0
0.00276893 0 0
0.0027794 0 0
0.0027794 0 0
0.00278986 0 0
0.00278986 0 0
0.00280033 0 0
0.00280033 0 0
0.00281079 0 0
0.00281079 0 0
0.00282126 0 0
0.00282126 0 0
0.00283172 0 0
0.00283172 0 0
0.00284218 0 0
0.00284218 0 0
0.00285265 0 0
0.00285265 0 0
0.00286311 0 0
0.00286311 0 0
0.00287357 0 0
0.00287357 0 0
0.00288403 0 0
0.00288403 0 0
0.0028945 0 0
0.0028945 0 0
0.00290496 0 0
0.00290496 0 0
0.00291542 0 0
0.00291542 0 0
0.00292588 0 0
0.00292588 0 0
0.00293634 0 0
0.00293634 0 0
0.0029468 0 0
0.0029468 0 0
0.00295726 0 0
0.00295726 0 0
0.00296772 0 0
0.00296772 0 0
0.00297818 0 0
0.00297818 0 0
0.00298864 0 0
0.00298864 0 0
0.0029991 0 0
0.0029991 0 0
0.00300956 0 0
0.00300956 0 0
0.00302002 0 0
0.00302002 0 0
0.00303048 0 0
0.00303048 0 0
0.00304094 0 0
0.00304094 0 0
0.00305139 0 0
0.00305139 0 0
0.00306185 0 0
0.00306185 0 0
0.00307231 0 0
0.00307231 0 0
0.00308276 0 0
0.00308276 0 0
0.00309322 0 0
0.00309322 0 0
0.00310368 0 0
0.00310368 0 0
0.00311413 0 0
0.00311413 0 0
0.00312459 0 0
0.00312459 0 0
0.00313504 0 0
0.00313504 0 0
0.0031455 0 0
0.0031455 0 0
0.00315595 0 0
0.00315595 0 0
0.00316641 0 0
0.00316641 0 0
0.00317686 0 0
0.00317686 0 0
0.00318732 0 0
0.00318732 0 0
0.00319777 0 0
0.00319777 0 0
0.00320822 0 0
0.00320822 0 0
0.00321868 0 0
0.00321868 0 0
0.00322913 0 0
0.00322913 0 0
0.00323958 0 0
0.00323958 0 0
0.00325003 0 0
0.00325003 0 0
0.00326049 0 0
0.00326049 0 0
0.00327094 0 0
0.00327094 0 0
0.00328139 0 0
0.00328139 0 0
0.00329184 0 0
0.00329184 0 0
0.00330229 0 0
0.00330229 0 0
0.00331274 0 0
0.00331274 0 0
0.00332319 0 0
0.00332319 0 0
0.00333364 0 0
0.00333364 0 0
0.00334409 0 0
0.00334409 0 0
0.00335454 0 0
0.00335454 0 0
0.00336499 0 0
0.00336499 0 0
0.00337544 0 0
0.00337544 0 0
0.00338588 0 0
0.00338588 0 0
0.00339633 0 0
0.00339633 0 0
0.00340678 0 0
0.00340678 0 0
0.00341723 0 0
0.00341723 0 0
0.00342767 0 0
0.00342767 0 0
0.00343812 0 0
0.00343812 0 0
0.00344856 0 0
0.00344856 0 0
0.00345901 0 0
0.00345901 0 0
0.00346946 0 0
0.00346946 0 0
0.0034799 0 0
0.0034799 0 0
0.00349035 0 0
0.00349035 0 0
0.00350079 0 0
0.00350079 0 0
0.00351123 0 0
0.00351123 0 0
0.00352168 0 0
0.00352168 0 0
0.00353212 0 0
0.00353212 0 0
0.00354256 0 0
0.00354256 0 0
0.00355301 0 0
0.00355301 0 0
0.00356345 0 0
0.00356345 0 0
0.00357389 0 0
0.00357389 0 0
0.00358433 0 0
0.00358433 0 0
0.00359477 0 0
0.00359477 0 0
0.00360522 0 0
0.00360522 0 0
0.00361566 0 0
0.00361566 0 0
0.0036261 0 0
0.0036261 0 0
0.00363654 0 0
0.00363654 0 0
0.00364698 0 0
0.00364698 0 0
0.00365742 0 0
0.00365742 0 0
0.00366785 0 0
0.00366785 0 0
0.00367829 0 0
0.00367829 0 0
0.00368873 0 0
0.00368873 0 0
0.00369917 0 0
0.00369917 0 0
0.00370961 0 0
0.00370961 0 0
0.00372004 0 0
0.00372004 0 0
0.00373048 0 0
0.00373048 0 0
0.00374092 0 0
0.00374092 0 0
0.00375135 0 0
0.00375135 0 0
0.00376179 0 0
0.00376179 0 0
0.00377222 0 0
0.00377222 0 0
0.00378266 0 0
0.00378266 0 0
0.00379309 0 0
0.00379309 0 0
0.00380353 0 0
0.00380353 0 0
0.00381396 0 0
0.00381396 0 0
0.0038244 0 0
0.0038244 0 0
0.00383483 0 0
0.00383483 0 0
0.00384526 0 0
0.00384526 0 0
0.00385569 0 0
0.00385569 0 0
0.00386613 0 0
0.00386613 0 0
0.00387656 0 0
0.00387656 0 0
0.00388699 0 0
0.00388699 0 0
0.00389742 0 0
0.00389742 0 0
0.00390785 0 0
0.00390785 0 0
0.00391828 0 0
0.00391828 0 0
0.00392871 0 0
0.00392871 0 0
0.00393914 0 0
0.00393914 0 0
0.00394957 0 0
0.00394957 0 0
0.00396 0 0
0.00396 0 0
0.00397043 0 0
0.00397043 0 0
0.00398085 0 0
0.00398085 0 0
0.00399128 0 0
0.00399128 0 0
0.00400171 0 0
0.00400171 0 0
0.00401214 0 0
0.00401214 0 0
0.00402256 0 0
0.00402256 0 0
0.00403299 0 0
0.00403299 0 0
0.00404341 0 0
0.00404341 0 0
0.00405384 0 0
0.00405384 0 0
0.00406426 0 0
0.00406426 0 0
0.00407469 0 0
0.00407469 0 0
0.00408511 0 0
0.00408511 0 0
0.00409554 0 0
0.00409554 0 0
0.00410596 0 0
0.00410596 0 0
0.00411638 0 0
0.00411638 0 0
0.00412681 0 0
0.00412681 0 0
0.00413723 0 0
0.00413723 0 0
0.00414765 0 0
0.00414765 0 0
0.00415807 0 0
0.00415807 0 0
0.00416849 0 0
0.00416849 0 0
0.00417891 0 0
0.00417891 0 0
0.00418933 0 0
0.00418933 0 0
0.00419975 0 0
0.00419975 0 0
0.00421017 0 0
0.00421017 0 0
0.00422059 0 0
0.00422059 0 0
0.00423101 0 0
0.00423101 0 0
0.00424143 0 0
0.00424143 0 0
0.00425185 0 0
0.00425185 0 0
0.00426226 0 0
0.00426226 0 0
0.00427268 0 0
0.00427268 0 0
0.0042831 0 0
0.0042831 0 0
0.00429351 0 0
0.00429351 0 0
0.00430393 0 0
0.00430393 0 0
0.00431434 0 0
0.00431434 0 0
0.00432476 0 0
0.00432476 0 0
0.00433517 0 0
0.00433517 0 0
0.00434559 0 0
0.00434559 0 0
0.004356 0 0
0.004356 0 0
0.00436641 0 0
0.00436641 0 0
0.00437683 0 0
0.00437683 0 0
0.00438724 0 0
0.00438724 0 0
0.00439765 0 0
0.00439765 0 0
0.00440806 0 0
0.00440806 0 0
0.00441847 0 0
0.00441847 0 0
0.00442889 0 0
0.00442889 0 0
0.0044393 0 0
0.0044393 0 0
0.00444971 0 0
0.00444971 0 0
0.00446011 0 0
0.00446011 0 0
0.00447052 0 0
0.00447052 0 0
0.00448093 0 0
0.00448093 0 0
0.00449134 0 0
0.00449134 0 0
0.00450175 0 0
0.00450175 0 0
0.00451216 0 0
0.00451216 0 0
0.00452256 0 0
0.00452256 0 0
0.00453297 0 0
0.00453297 0 0
0.00454338 0 0
0.00454338 0 0
0.00455378 0 0
0.00455378 0 0
0.00456419 0 0
0.00456419 0 0
0.00457459 0 0
0.00457459 0 0
0.004585 0 0
0.004585 0 0
0.0045954 0 0
0.0045954 0 0
0.0046058 0 0
0.0046058 0 0
0.00461621 0 0
0.00461621 0 0
0.00462661 0 0
0.00462661 0 0
0.00463701 0 0
0.00463701 0 0
0.00464741 0 0
0.00464741 0 0
0.00465781 0 0
0.00465781 0 0
0.00466821 0 0
0.00466821 0 0
0.00467861 0 0
0.00467861 0 0
0.00468901 0 0
0.00468901 0 0
0.00469941 0 0
0.00469941 0 0
0.00470981 0 0
0.00470981 0 0
0.00472021 0 0
0.00472021 0 0
0.00473061 0 0
0.00473061 0 0
0.00474101 0 0
0.00474101 0 0
0.0047514 0 0
0.0047514 0 0
0.0047618 0 0
0.0047618 0 0
0.0047722 0 0
0.0047722 0 0
0.00478259 0 0
0.00478259 0 0
0.00479299 0 0
0.00479299 0 0
0.00480338 0 0
0.00480338 0 0
0.00481378 0 0
0.00481378 0 0
0.00482417 0 0
0.00482417 0 0
0.00483456 0 0
0.00483456 0 0
0.00484496 0 0
0.00484496 0 0
0.00485535 0 0
0.00485535 0 0
0.00486574 0 0
0.00486574 0 0
0.00487613 0 0
0.00487613 0 0
0.00488653 0 0
0.00488653 0 0
0.00489692 0 0
0.00489692 0 0
0.00490731 0 0
0.00490731 0 0
0.0049177 0 0
0.0049177 0 0
0.00492809 0 0
0.00492809 0 0
0.00493847 0 0
0.00493847 0 0
0.00494886 0 0
0.00494886 0 0
0.00495925 0 0
0.00495925 0 0
0.00496964 0 0
0.00496964 0 0
0.00498002 0 0
0.00498002 0 0
0.00499041 0 0
0.00499041 0 0
0.0050008 0 0
0.0050008 0 0
0.00501118 0 0
0.00501118 0 0
0.00502157 0 0
0.00502157 0 0
0.00503195 0 0
0.00503195 0 0
0.00504234 0 0
0.00504234 0 0
0.00505272 0 0
0.00505272 0 0
0.0050631 0 0
0.0050631 0 0
0.00507349 0 0
0.00507349 0 0
0.00508387 0 0
0.00508387 0 0
0.00509425 0 0
0.00509425 0 0
0.00510463 0 0
0.00510463 0 0
0.00511501 0 0
0.00511501 0 0
0.00512539 0 0
0.00512539 0 0
0.00513577 0 0
0.00513577 0 0
0.00514615 0 0
0.00514615 0 0
0.00515653 0 0
0.00515653 0 0
0.00516691 0 0
0.00516691 0 0
0.00517729 0 0
0.00517729 0 0
0.00518766 0 0
0.00518766 0 0
0.00519804 0 0
0.00519804 0 0
0.00520842 0 0
0.00520842 0 0
0.00521879 0 0
0.00521879 0 0
0.00522917 0 0
0.00522917 0 0
0.00523954 0 0
0.00523954 0 0
0.00524992 0 0
0.00524992 0 0
0.00526029 0 0
0.00526029 0 0
0.00527066 0 0
0.00527066 0 0
0.00528104 0 0
0.00528104 0 0
0.00529141 0 0
0.00529141 0 0
0.00530178 0 0
0.00530178 0 0
0.00531215 0 0
0.00531215 0 0
0.00532252 0 0
0.00532252 0 0
0.00533289 0 0
0.00533289 0 0
0.00534326 0 0
0.00534326 0 0
0.00535363 0 0
0.00535363 0 0
0.005364 0 0
0.005364 0 0
0.00537437 0 0
0.00537437 0 0
0.00538473 0 0
0.00538473 0 0
0.0053951 0 0
0.0053951 0 0
0.00540547 0 0
0.00540547 0 0
0.00541583 0 0
0.00541583 0 0
0.0054262 0 0
0.0054262 0 0
0.00543657 0 0
0.00543657 0 0
0.00544693 0 0
0.00544693 0 0
0.00545729 0 0
0.00545729 0 0
0.00546766 0 0
0.00546766 0 0
0.00547802 0 0
0.00547802 0 0
0.00548838 0 0
0.00548838 0 0
0.00549874 0 0
0.00549874 0 0
0.00550911 0 0
0.00550911 0 0
0.00551947 0 0
0.00551947 0 0
0.00552983 0 0
0.00552983 0 0
0.00554019 0 0
0.00554019 0 0
0.00555055 0 0
0.00555055 0 0
0.00556091 0 0
0.00556091 0 0
0.00557126 0 0
0.00557126 0 0
0.00558162 0 0
0.00558162 0 0
0.00559198 0 0
0.00559198 0 0
0.00560234 0 0
0.00560234 0 0
0.00561269 0 0
0.00561269 0 0
0.00562305 0 0
0.00562305 0 0
0.0056334 0 0
0.0056334 0 0
0.00564376 0 0
0.00564376 0 0
0.00565411 0 0
0.00565411 0 0
0.00566446 0 0
0.00566446 0 0
0.00567482 0 0
0.00567482 0 0
0.00568517 0 0
0.00568517 0 0
0.00569552 0 0
0.00569552 0 0
0.00570587 0 0
0.00570587 0 0
0.00571622 0 0
0.00571622 0 0
0.00572657 0 0
0.00572657 0 0
0.00573692 0 0
0.00573692 0 0
0.00574727 0 0
0.00574727 0 0
0.00575762 0 0
0.00575762 0 0
0.00576797 0 0
0.00576797 0 0
0.00577831 0 0
0.00577831 0 0
0.00578866 0 0
0.00578866 0 0
0.00579901 0 0
0.00579901 0 0
0.00580935 0 0
0.00580935 0 0
0.0058197 0 0
0.0058197 0 0
0.00583004 0 0
0.00583004 0 0
0.00584039 0 0
0.00584039 0 0
0.00585073 0 0
0.00585073 0 0
0.00586107 0 0
0.00586107 0 0
0.00587142 0 0
0.00587142 0 0
0.00588176 0 0
0.00588176 0 0
0.0058921 0 0
0.0058921 0 0
0.00590244 0 0
0.00590244 0 0
0.00591278 0 0
0.00591278 0 0
0.00592312 0 0
0.00592312 0 0
0.00593346 0 0
0.00593346 0 0
0.0059438 0 0
0.0059438 0 0
0.00595413 0 0
0.00595413 0 0
0.00596447 0 0
0.00596447 0 0
0.00597481 0 0
0.00597481 0 0
0.00598514 0 0
0.00598514 0 0
0.00599548 0 0
0.00599548 0 0
0.00600582 0 0
0.00600582 0 0
0.00601615 0 0
0.00601615 0 0
0.00602648 0 0
0.00602648 0 0
0.00603682 0 0
0.00603682 0 0
0.00604715 0 0
0.00604715 0 0
0.00605748 0 0
0.00605748 0 0
0.00606781 0 0
0.00606781 0 0
0.00607814 0 0
0.00607814 0 0
0.00608847 0 0
0.00608847 0 0
0.0060988 0 0
0.0060988 0 0
0.00610913 0 0
0.00610913 0 0
0.00611946 0 0
0.00611946 0 0
0.00612979 0 0
0.00612979 0 0
0.00614012 0 0
0.00614012 0 0
0.00615044 0 0
0.00615044 0 0
0.00616077 0 0
0.00616077 0 0
0.0061711 0 0
0.0061711 0 0
0.00618142 0 0
0.00618142 0 0
0.00619175 0 0
0.00619175 0 0
0.00620207 0 0
0.00620207 0 0
0.00621239 0 0
0.00621239 0 0
0.00622272 0 0
0.00622272 0 0
0.00623304 0 0
0.00623304 0 0
0.00624336 0 0
0.00624336 0 0
0.00625368 0 0
0.00625368 0 0
0.006264 0 0
0.006264 0 0
0.00627432 0 0
0.00627432 0 0
0.00628464 0 0
0.00628464 0 0
0.00629496 0 0
0.00629496 0 0
0.00630528 0 0
0.00630528 0 0
0.00631559 0 0
0.00631559 0 0
0.00632591 0 0
0.00632591 0 0
0.00633623 0 0
0.00633623 0 0
0.00634654 0 0
0.00634654 0 0
0.00635686 0 0
0.00635686 0 0
0.00636717 0 0
0.00636717 0 0
0.00637748 0 0
0.00637748 0 0
0.0063878 0 0
0.0063878 0 0
0.00639811 0 0
0.00639811 0 0
0.00640842 0 0
0.00640842 0 0
0.00641873 0 0
0.00641873 0 0
0.00642904 0 0
0.00642904 0 0
0.00643935 0 0
0.00643935 0 0
0.00644966 0 0
0.00644966 0 0
0.00645997 0 0
0.00645997 0 0
0.00647028 0 0
0.00647028 0 0
0.00648059 0 0
0.00648059 0 0
0.00649089 0 0
0.00649089 0 0
0.0065012 0 0
0.0065012 0 0
0.0065115 0 0
0.0065115 0 0
0.00652181 0 0
0.00652181 0 0
0.00653211 0 0
0.00653211 0 0
0.00654242 0 0
0.00654242 0 0
0.00655272 0 0
0.00655272 0 0
0.00656302 0 0
0.00656302 0 0
0.00657333 0 0
0.00657333 0 0
0.00658363 0 0
0.00658363 0 0
0.00659393 0 0
0.00659393 0 0
0.00660423 0 0
0.00660423 0 0
0.00661453 0 0
0.00661453 0 0
0.00662483 0 0
0.00662483 0 0
0.00663512 0 0
0.00663512 0 0
0.00664542 0 0
0.00664542 0 0
0.00665572 0 0
0.00665572 0 0
0.00666601 0 0
0.00666601 0 0
0.00667631 0 0
0.00667631 0 0
0.0066866 0 0
0.0066866 0 0
0.0066969 0 0
0.0066969 0 0
0.00670719 0 0
0.00670719 0 0
0.00671748 0 0
0.00671748 0 0
0.00672778 0 0
0.00672778 0 0
0.00673807 0 0
0.00673807 0 0
0.00674836 0 0
0.00674836 0 0
0.00675865 0 0
0.00675865 0 0
0.00676894 0 0
0.00676894 0 0
0.00677923 0 0
0.00677923 0 0
0.00678952 0 0
0.00678952 0 0
0.00679981 0 0
0.00679981 0 0
0.00681009 0 0
0.00681009 0 0
0.00682038 0 0
0.00682038 0 0
0.00683066 0 0
0.00683066 0 0
0.00684095 0 0
0.00684095 0 0
0.00685123 0 0
0.00685123 0 0
0.00686152 0 0
0.00686152 0 0
0.0068718 0 0
0.0068718 0 0
0.00688208 0 0
0.00688208 0 0
0.00689237 0 0
0.00689237 0 0
0.00690265 0 0
0.00690265 0 0
0.00691293 0 0
0.00691293 0 0
0.00692321 0 0
0.00692321 0 0
0.00693349 0 0
0.00693349 0 0
0.00694377 0 0
0.00694377 0 0