# vtk DataFile Version 3.0
#This file was generated by the deal.II library on 2018/11/18 at 20:16:37
ASCII
DATASET UNSTRUCTURED_GRID

POINTS 2400 double
0 0 0
0.002 0 0
0 0.002 0
0.002 0.002 0
0.002 0 0
0.004 0 0
0.002 0.002 0
0.004 0.002 0
0.004 0 0
0.006 0 0
0.004 0.002 0
0.006 0.002 0
0.006 0 0
0.008 0 0
0.006 0.002 0
0.008 0.002 0
0.008 0 0
0.01 0 0
0.008 0.002 0
0.01 0.002 0
0.01 0 0
0.012 0 0
0.01 0.002 0
0.012 0.002 0
0.012 0 0
0.014 0 0
0.012 0.002 0
0.014 0.002 0
0.014 0 0
0.016 0 0
0.014 0.002 0
0.016 0.002 0
0.016 0 0
0.018 0 0
0.016 0.002 0
0.018 0.002 0
0.018 0 0
0.02 0 0
0.018 0.002 0
0.02 0.002 0
0.02 0 0
0.022 0 0
0.02 0.002 0
0.022 0.002 0
0.022 0 0
0.024 0 0
0.022 0.002 0
0.024 0.002 0
0.024 0 0
0.026 0 0
0.024 0.002 0
0.026 0.002 0
0.026 0 0
0.028 0 0
0.026 0.002 0
0.028 0.002 0
0.028 0 0
0.03 0 0
0.028 0.002 0
0.03 0.002 0
0 0.002 0
0.002 0.002 0
0 0.004 0
0.002 0.004 0
0.002 0.002 0
0.004 0.002 0
0.002 0.004 0
0.004 0.004 0
0.004 0.002 0
0.006 0.002 0
0.004 0.004 0
0.006 0.004 0
0.006 0.002 0
0.008 0.002 0
0.006 0.004 0
0.008 0.004 0
0.008 0.002 0
0.01 0.002 0
0.008 0.004 0
0.01 0.004 0
0.01 0.002 0
0.012 0.002 0
0.01 0.004 0
0.012 0.004 0
0.012 0.002 0
0.014 0.002 0
0.012 0.004 0
0.014 0.004 0
0.014 0.002 0
0.016 0.002 0
0.014 0.004 0
0.016 0.004 0
0.016 0.002 0
0.018 0.002 0
0.016 0.004 0
0.018 0.004 0
0.018 0.002 0
0.02 0.002 0
0.018 0.004 0
0.02 0.004 0
0.02 0.002 0
0.022 0.002 0
0.02 0.004 0
0.022 0.004 0
0.022 0.002 0
0.024 0.002 0
0.022 0.004 0
0.024 0.004 0
0.024 0.002 0
0.026 0.002 0
0.024 0.004 0
0.026 0.004 0
0.026 0.002 0
0.028 0.002 0
0.026 0.004 0
0.028 0.004 0
0.028 0.002 0
0.03 0.002 0
0.028 0.004 0
0.03 0.004 0
0 0.004 0
0.002 0.004 0
0 0.006 0
0.002 0.006 0
0.002 0.004 0
0.004 0.004 0
0.002 0.006 0
0.004 0.006 0
0.004 0.004 0
0.006 0.004 0
0.004 0.006 0
0.006 0.006 0
0.006 0.004 0
0.008 0.004 0
0.006 0.006 0
0.008 0.006 0
0.008 0.004 0
0.01 0.004 0
0.008 0.006 0
0.01 0.006 0
0.01 0.004 0
0.012 0.004 0
0.01 0.006 0
0.012 0.006 0
0.012 0.004 0
0.014 0.004 0
0.012 0.006 0
0.014 0.006 0
0.014 0.004 0
0.016 0.004 0
0.014 0.006 0
0.016 0.006 0
0.016 0.004 0
0.018 0.004 0
0.016 0.006 0
0.018 0.006 0
0.018 0.004 0
0.02 0.004 0
0.018 0.006 0
0.02 0.006 0
0.02 0.004 0
0.022 0.004 0
0.02 0.006 0
0.022 0.006 0
0.022 0.004 0
0.024 0.004 0
0.022 0.006 0
0.024 0.006 0
0.024 0.004 0
0.026 0.004 0
0.024 0.006 0
0.026 0.006 0
0.026 0.004 0
0.028 0.004 0
0.026 0.006 0
0.028 0.006 0
0.028 0.004 0
0.03 0.004 0
0.028 0.006 0
0.03 0.006 0
0 0.006 0
0.002 0.006 0
0 0.008 0
0.002 0.008 0
0.002 0.006 0
0.004 0.006 0
0.002 0.008 0
0.004 0.008 0
0.004 0.006 0
0.006 0.006 0
0.004 0.008 0
0.006 0.008 0
0.006 0.006 0
0.008 0.006 0
0.006 0.008 0
0.008 0.008 0
0.008 0.006 0
0.01 0.006 0
0.008 0.008 0
0.01 0.008 0
0.01 0.006 0
0.012 0.006 0
0.01 0.008 0
0.012 0.008 0
0.012 0.006 0
0.014 0.006 0
0.012 0.008 0
0.014 0.008 0
0.014 0.006 0
0.016 0.006 0
0.014 0.008 0
0.016 0.008 0
0.016 0.006 0
0.018 0.006 0
0.016 0.008 0
0.018 0.008 0
0.018 0.006 0
0.02 0.006 0
0.018 0.008 0
0.02 0.008 0
0.02 0.006 0
0.022 0.006 0
0.02 0.008 0
0.022 0.008 0
0.022 0.006 0
0.024 0.006 0
0.022 0.008 0
0.024 0.008 0
0.024 0.006 0
0.026 0.006 0
0.024 0.008 0
0.026 0.008 0
0.026 0.006 0
0.028 0.006 0
0.026 0.008 0
0.028 0.008 0
0.028 0.006 0
0.03 0.006 0
0.028 0.008 0
0.03 0.008 0
0 0.008 0
0.002 0.008 0
0 0.01 0
0.002 0.01 0
0.002 0.008 0
0.004 0.008 0
0.002 0.01 0
0.004 0.01 0
0.004 0.008 0
0.006 0.008 0
0.004 0.01 0
0.006 0.01 0
0.006 0.008 0
0.008 0.008 0
0.006 0.01 0
0.008 0.01 0
0.008 0.008 0
0.01 0.008 0
0.008 0.01 0
0.01 0.01 0
0.01 0.008 0
0.012 0.008 0
0.01 0.01 0
0.012 0.01 0
0.012 0.008 0
0.014 0.008 0
0.012 0.01 0
0.014 0.01 0
0.014 0.008 0
0.016 0.008 0
0.014 0.01 0
0.016 0.01 0
0.016 0.008 0
0.018 0.008 0
0.016 0.01 0
0.018 0.01 0
0.018 0.008 0
0.02 0.008 0
0.018 0.01 0
0.02 0.01 0
0.02 0.008 0
0.022 0.008 0
0.02 0.01 0
0.022 0.01 0
0.022 0.008 0
0.024 0.008 0
0.022 0.01 0
0.024 0.01 0
0.024 0.008 0
0.026 0.008 0
0.024 0.01 0
0.026 0.01 0
0.026 0.008 0
0.028 0.008 0
0.026 0.01 0
0.028 0.01 0
0.028 0.008 0
0.03 0.008 0
0.028 0.01 0
0.03 0.01 0
0 0.01 0
0.002 0.01 0
0 0.012 0
0.002 0.012 0
0.002 0.01 0
0.004 0.01 0
0.002 0.012 0
0.004 0.012 0
0.004 0.01 0
0.006 0.01 0
0.004 0.012 0
0.006 0.012 0
0.006 0.01 0
0.008 0.01 0
0.006 0.012 0
0.008 0.012 0
0.008 0.01 0
0.01 0.01 0
0.008 0.012 0
0.01 0.012 0
0.01 0.01 0
0.012 0.01 0
0.01 0.012 0
0.012 0.012 0
0.012 0.01 0
0.014 0.01 0
0.012 0.012 0
0.014 0.012 0
0.014 0.01 0
0.016 0.01 0
0.014 0.012 0
0.016 0.012 0
0.016 0.01 0
0.018 0.01 0
0.016 0.012 0
0.018 0.012 0
0.018 0.01 0
0.02 0.01 0
0.018 0.012 0
0.02 0.012 0
0.02 0.01 0
0.022 0.01 0
0.02 0.012 0
0.022 0.012 0
0.022 0.01 0
0.024 0.01 0
0.022 0.012 0
0.024 0.012 0
0.024 0.01 0
0.026 0.01 0
0.024 0.012 0
0.026 0.012 0
0.026 0.01 0
0.028 0.01 0
0.026 0.012 0
0.028 0.012 0
0.028 0.01 0
0.03 0.01 0
0.028 0.012 0
0.03 0.012 0
0 0.012 0
0.002 0.012 0
0 0.014 0
0.002 0.014 0
0.002 0.012 0
0.004 0.012 0
0.002 0.014 0
0.004 0.014 0
0.004 0.012 0
0.006 0.012 0
0.004 0.014 0
0.006 0.014 0
0.006 0.012 0
0.008 0.012 0
0.006 0.014 0
0.008 0.014 0
0.008 0.012 0
0.01 0.012 0
0.008 0.014 0
0.01 0.014 0
0.01 0.012 0
0.012 0.012 0
0.01 0.014 0
0.012 0.014 0
0.012 0.012 0
0.014 0.012 0
0.012 0.014 0
0.014 0.014 0
0.014 0.012 0
0.016 0.012 0
0.014 0.014 0
0.016 0.014 0
0.016 0.012 0
0.018 0.012 0
0.016 0.014 0
0.018 0.014 0
0.018 0.012 0
0.02 0.012 0
0.018 0.014 0
0.02 0.014 0
0.02 0.012 0
0.022 0.012 0
0.02 0.014 0
0.022 0.014 0
0.022 0.012 0
0.024 0.012 0
0.022 0.014 0
0.024 0.014 0
0.024 0.012 0
0.026 0.012 0
0.024 0.014 0
0.026 0.014 0
0.026 0.012 0
0.028 0.012 0
0.026 0.014 0
0.028 0.014 0
0.028 0.012 0
0.03 0.012 0
0.028 0.014 0
0.03 0.014 0
0 0.014 0
0.002 0.014 0
0 0.016 0
0.002 0.016 0
0.002 0.014 0
0.004 0.014 0
0.002 0.016 0
0.004 0.016 0
0.004 0.014 0
0.006 0.014 0
0.004 0.016 0
0.006 0.016 0
0.006 0.014 0
0.008 0.014 0
0.006 0.016 0
0.008 0.016 0
0.008 0.014 0
0.01 0.014 0
0.008 0.016 0
0.01 0.016 0
0.01 0.014 0
0.012 0.014 0
0.01 0.016 0
0.012 0.016 0
0.012 0.014 0
0.014 0.014 0
0.012 0.016 0
0.014 0.016 0
0.014 0.014 0
0.016 0.014 0
0.014 0.016 0
0.016 0.016 0
0.016 0.014 0
0.018 0.014 0
0.016 0.016 0
0.018 0.016 0
0.018 0.014 0
0.02 0.014 0
0.018 0.016 0
0.02 0.016 0
0.02 0.014 0
0.022 0.014 0
0.02 0.016 0
0.022 0.016 0
0.022 0.014 0
0.024 0.014 0
0.022 0.016 0
0.024 0.016 0
0.024 0.014 0
0.026 0.014 0
0.024 0.016 0
0.026 0.016 0
0.026 0.014 0
0.028 0.014 0
0.026 0.016 0
0.028 0.016 0
0.028 0.014 0
0.03 0.014 0
0.028 0.016 0
0.03 0.016 0
0 0.016 0
0.002 0.016 0
0 0.018 0
0.002 0.018 0
0.002 0.016 0
0.004 0.016 0
0.002 0.018 0
0.004 0.018 0
0.004 0.016 0
0.006 0.016 0
0.004 0.018 0
0.006 0.018 0
0.006 0.016 0
0.008 0.016 0
0.006 0.018 0
0.008 0.018 0
0.008 0.016 0
0.01 0.016 0
0.008 0.018 0
0.01 0.018 0
0.01 0.016 0
0.012 0.016 0
0.01 0.018 0
0.012 0.018 0
0.012 0.016 0
0.014 0.016 0
0.012 0.018 0
0.014 0.018 0
0.014 0.016 0
0.016 0.016 0
0.014 0.018 0
0.016 0.018 0
0.016 0.016 0
0.018 0.016 0
0.016 0.018 0
0.018 0.018 0
0.018 0.016 0
0.02 0.016 0
0.018 0.018 0
0.02 0.018 0
0.02 0.016 0
0.022 0.016 0
0.02 0.018 0
0.022 0.018 0
0.022 0.016 0
0.024 0.016 0
0.022 0.018 0
0.024 0.018 0
0.024 0.016 0
0.026 0.016 0
0.024 0.018 0
0.026 0.018 0
0.026 0.016 0
0.028 0.016 0
0.026 0.018 0
0.028 0.018 0
0.028 0.016 0
0.03 0.016 0
0.028 0.018 0
0.03 0.018 0
0 0.018 0
0.002 0.018 0
0 0.02 0
0.002 0.02 0
0.002 0.018 0
0.004 0.018 0
0.002 0.02 0
0.004 0.02 0
0.004 0.018 0
0.006 0.018 0
0.004 0.02 0
0.006 0.02 0
0.006 0.018 0
0.008 0.018 0
0.006 0.02 0
0.008 0.02 0
0.008 0.018 0
0.01 0.018 0
0.008 0.02 0
0.01 0.02 0
0.01 0.018 0
0.012 0.018 0
0.01 0.02 0
0.012 0.02 0
0.012 0.018 0
0.014 0.018 0
0.012 0.02 0
0.014 0.02 0
0.014 0.018 0
0.016 0.018 0
0.014 0.02 0
0.016 0.02 0
0.016 0.018 0
0.018 0.018 0
0.016 0.02 0
0.018 0.02 0
0.018 0.018 0
0.02 0.018 0
0.018 0.02 0
0.02 0.02 0
0.02 0.018 0
0.022 0.018 0
0.02 0.02 0
0.022 0.02 0
0.022 0.018 0
0.024 0.018 0
0.022 0.02 0
0.024 0.02 0
0.024 0.018 0
0.026 0.018 0
0.024 0.02 0
0.026 0.02 0
0.026 0.018 0
0.028 0.018 0
0.026 0.02 0
0.028 0.02 0
0.028 0.018 0
0.03 0.018 0
0.028 0.02 0
0.03 0.02 0
0 0.02 0
0.002 0.02 0
0 0.022 0
0.002 0.022 0
0.002 0.02 0
0.004 0.02 0
0.002 0.022 0
0.004 0.022 0
0.004 0.02 0
0.006 0.02 0
0.004 0.022 0
0.006 0.022 0
0.006 0.02 0
0.008 0.02 0
0.006 0.022 0
0.008 0.022 0
0.008 0.02 0
0.01 0.02 0
0.008 0.022 0
0.01 0.022 0
0.01 0.02 0
0.012 0.02 0
0.01 0.022 0
0.012 0.022 0
0.012 0.02 0
0.014 0.02 0
0.012 0.022 0
0.014 0.022 0
0.014 0.02 0
0.016 0.02 0
0.014 0.022 0
0.016 0.022 0
0.016 0.02 0
0.018 0.02 0
0.016 0.022 0
0.018 0.022 0
0.018 0.02 0
0.02 0.02 0
0.018 0.022 0
0.02 0.022 0
0.02 0.02 0
0.022 0.02 0
0.02 0.022 0
0.022 0.022 0
0.022 0.02 0
0.024 0.02 0
0.022 0.022 0
0.024 0.022 0
0.024 0.02 0
0.026 0.02 0
0.024 0.022 0
0.026 0.022 0
0.026 0.02 0
0.028 0.02 0
0.026 0.022 0
0.028 0.022 0
0.028 0.02 0
0.03 0.02 0
0.028 0.022 0
0.03 0.022 0
0 0.022 0
0.002 0.022 0
0 0.024 0
0.002 0.024 0
0.002 0.022 0
0.004 0.022 0
0.002 0.024 0
0.004 0.024 0
0.004 0.022 0
0.006 0.022 0
0.004 0.024 0
0.006 0.024 0
0.006 0.022 0
0.008 0.022 0
0.006 0.024 0
0.008 0.024 0
0.008 0.022 0
0.01 0.022 0
0.008 0.024 0
0.01 0.024 0
0.01 0.022 0
0.012 0.022 0
0.01 0.024 0
0.012 0.024 0
0.012 0.022 0
0.014 0.022 0
0.012 0.024 0
0.014 0.024 0
0.014 0.022 0
0.016 0.022 0
0.014 0.024 0
0.016 0.024 0
0.016 0.022 0
0.018 0.022 0
0.016 0.024 0
0.018 0.024 0
0.018 0.022 0
0.02 0.022 0
0.018 0.024 0
0.02 0.024 0
0.02 0.022 0
0.022 0.022 0
0.02 0.024 0
0.022 0.024 0
0.022 0.022 0
0.024 0.022 0
0.022 0.024 0
0.024 0.024 0
0.024 0.022 0
0.026 0.022 0
0.024 0.024 0
0.026 0.024 0
0.026 0.022 0
0.028 0.022 0
0.026 0.024 0
0.028 0.024 0
0.028 0.022 0
0.03 0.022 0
0.028 0.024 0
0.03 0.024 0
0 0.024 0
0.002 0.024 0
0 0.026 0
0.002 0.026 0
0.002 0.024 0
0.004 0.024 0
0.002 0.026 0
0.004 0.026 0
0.004 0.024 0
0.006 0.024 0
0.004 0.026 0
0.006 0.026 0
0.006 0.024 0
0.008 0.024 0
0.006 0.026 0
0.008 0.026 0
[...]
POINT_DATA 2400
SCALARS D double 1
LOOKUP_TABLE default
300 300.2 300.644 300.701 300.2 300.4 300.701 300.823 300.4 300.6 300.823 300.972 300.6 300.8 300.972 301.133 300.8 301 301.133 301.3 301 301.2 301.3 301.471 301.2 301.4 301.471 301.644 301.4 301.6 301.644 301.818 301.6 301.8 301.818 301.991 301.8 302 301.991 302.162 302 302.2 302.162 302.329 302.2 302.4 302.329 302.49 302.4 302.6 302.49 302.639 302.6 302.8 302.639 302.761 302.8 303 302.761 302.819 300.644 300.701 301.116 301.146 300.701 300.823 301.146 301.224 300.823 300.972 301.224 301.333 300.972 301.133 301.333 301.46 301.133 301.3 301.46 301.597 301.3 301.471 301.597 301.741 301.471 301.644 301.741 301.888 301.644 301.818 301.888 302.036 301.818 301.991 302.036 302.183 301.991 302.162 302.183 302.327 302.162 302.329 302.327 302.465 302.329 302.49 302.465 302.591 302.49 302.639 302.591 302.7 302.639 302.761 302.7 302.779 302.761 302.819 302.779 302.809 301.116 301.146 301.521 301.541 301.146 301.224 301.541 301.596 301.224 301.333 301.596 301.677 301.333 301.46 301.677 301.776 301.46 301.597 301.776 301.888 301.597 301.741 301.888 302.008 301.741 301.888 302.008 302.131 301.888 302.036 302.131 302.256 302.036 302.183 302.256 302.379 302.183 302.327 302.379 302.498 302.327 302.465 302.498 302.61 302.465 302.591 302.61 302.71 302.591 302.7 302.71 302.791 302.7 302.779 302.791 302.846 302.779 302.809 302.846 302.865 301.521 301.541 301.886 301.9 301.541 301.596 301.9 301.941 301.596 301.677 301.941 302.003 301.677 301.776 302.003 302.081 301.776 301.888 302.081 302.172 301.888 302.008 302.172 302.27 302.008 302.131 302.27 302.372 302.131 302.256 302.372 302.476 302.256 302.379 302.476 302.579 302.379 302.498 302.579 302.677 302.498 302.61 302.677 302.768 302.61 302.71 302.768 302.846 302.71 302.791 302.846 302.908 302.791 302.846 302.908 302.949 302.846 302.865 302.949 302.963 301.886 301.9 302.222 302.233 301.9 301.941 302.233 302.264 301.941 302.003 302.264 302.312 302.003 302.081 302.312 302.374 302.081 302.172 302.374 302.448 302.172 302.27 302.448 302.528 302.27 302.372 302.528 302.613 302.372 302.476 302.613 302.698 302.476 302.579 302.698 302.783 302.579 302.677 302.783 302.863 302.677 302.768 302.863 302.936 302.768 302.846 302.936 302.999 302.846 302.908 302.999 303.047 302.908 302.949 303.047 303.078 302.949 302.963 303.078 303.089 302.222 302.233 302.537 302.545 302.233 302.264 302.545 302.569 302.264 302.312 302.569 302.607 302.312 302.374 302.607 302.657 302.374 302.448 302.657 302.716 302.448 302.528 302.716 302.782 302.528 302.613 302.782 302.851 302.613 302.698 302.851 302.922 302.698 302.783 302.922 302.991 302.783 302.863 302.991 303.057 302.863 302.936 303.057 303.116 302.936 302.999 303.116 303.166 302.999 303.047 303.166 303.204 303.047 303.078 303.204 303.228 303.078 303.089 303.228 303.237 302.537 302.545 302.835 302.841 302.545 302.569 302.841 302.86 302.569 302.607 302.86 302.891 302.607 302.657 302.891 302.931 302.657 302.716 302.931 302.979 302.716 302.782 302.979 303.032 302.782 302.851 303.032 303.089 302.851 302.922 303.089 303.147 302.922 302.991 303.147 303.203 302.991 303.057 303.203 303.257 303.057 303.116 303.257 303.305 303.116 303.166 303.305 303.345 303.166 303.204 303.345 303.375 303.204 303.228 303.375 303.394 303.228 303.237 303.394 303.401 302.835 302.841 303.119 303.124 302.841 302.86 303.124 303.14 302.86 302.891 303.14 303.164 302.891 302.931 303.164 303.197 302.931 302.979 303.197 303.235 302.979 303.032 303.235 303.279 303.032 303.089 303.279 303.325 303.089 303.147 303.325 303.372 303.147 303.203 303.372 303.419 303.203 303.257 303.419 303.462 303.257 303.305 303.462 303.501 303.305 303.345 303.501 303.534 303.345 303.375 303.534 303.558 303.375 303.394 303.558 303.573 303.394 303.401 303.573 303.578 303.119 303.124 303.393 303.398 303.124 303.14 303.398 303.41 303.14 303.164 303.41 303.43 303.164 303.197 303.43 303.456 303.197 303.235 303.456 303.487 303.235 303.279 303.487 303.523 303.279 303.325 303.523 303.561 303.325 303.372 303.561 303.599 303.372 303.419 303.599 303.637 303.419 303.462 303.637 303.672 303.462 303.501 303.672 303.704 303.501 303.534 303.704 303.73 303.534 303.558 303.73 303.75 303.558 303.573 303.75 303.762 303.573 303.578 303.762 303.766 303.393 303.398 303.659 303.663 303.398 303.41 303.663 303.673 303.41 303.43 303.673 303.689 303.43 303.456 303.689 303.71 303.456 303.487 303.71 303.736 303.487 303.523 303.736 303.764 303.523 303.561 303.764 303.795 303.561 303.599 303.795 303.827 303.599 303.637 303.827 303.858 303.637 303.672 303.858 303.886 303.672 303.704 303.886 303.912 303.704 303.73 303.912 303.933 303.73 303.75 303.933 303.949 303.75 303.762 303.949 303.959 303.762 303.766 303.959 303.963 303.659 303.663 303.918 303.921 303.663 303.673 303.921 303.929 303.673 303.689 303.929 303.942 303.689 303.71 303.942 303.96 303.71 303.736 303.96 303.98 303.736 303.764 303.98 304.004 303.764 303.795 304.004 304.029 303.795 303.827 304.029 304.055 303.827 303.858 304.055 304.08 303.858 303.886 304.08 304.104 303.886 303.912 304.104 304.125 303.912 303.933 304.125 304.142 303.933 303.949 304.142 304.155 303.949 303.959 304.155 304.163 303.959 303.963 304.163 304.166 303.918 303.921 304.172 304.174 303.921 303.929 304.174 304.181 303.929 303.942 304.181 304.191 303.942 303.96 304.191 304.206 303.96 303.98 304.206 304.223 303.98 304.004 304.223 304.242 304.004 304.029 304.242 304.263 304.029 304.055 304.263 304.284 304.055 304.08 304.284 304.304 304.08 304.104 304.304 304.324 304.104 304.125 304.324 304.341 304.125 304.142 304.341 304.355 304.142 304.155 304.355 304.366 304.155 304.163 304.366 304.372 304.163 304.166 304.372 304.374 304.172 304.174 304.421 304.423 304.174 304.181 304.423 304.428 304.181 304.191 304.428 304.437 304.191 304.206 304.437 304.449 304.206 304.223 304.449 304.463 304.223 304.242 304.463 304.479 304.242 304.263 304.479 304.496 304.263 304.284 304.496 304.513 304.284 304.304 304.513 304.53 304.304 304.324 304.53 304.546 304.324 304.341 304.546 304.56 304.341 304.355 304.56 304.571 304.355 304.366 304.571 304.58 304.366 304.372 304.58 304.586 304.372 304.374 304.586 304.587 304.421 304.423 304.667 304.668 304.423 304.428 304.668 304.673 304.428 304.437 304.673 304.68 304.437 304.449 304.68 304.689 304.449 304.463 304.689 304.701 304.463 304.479 304.701 304.714 304.479 304.496 304.714 304.728 304.496 304.513 304.728 304.743 304.513 304.53 304.743 304.757 304.53 304.546 304.757 304.77 304.546 304.56 304.77 304.781 304.56 304.571 304.781 304.791 304.571 304.58 304.791 304.798 304.58 304.586 304.798 304.803 304.586 304.587 304.803 304.804 304.667 304.668 304.909 304.91 304.668 304.673 304.91 304.914 304.673 304.68 304.914 304.92 304.68 304.689 304.92 304.928 304.689 304.701 304.928 304.938 304.701 304.714 304.938 304.949 304.714 304.728 304.949 304.961 304.728 304.743 304.961 304.972 304.743 304.757 304.972 304.984 304.757 304.77 304.984 304.995 304.77 304.781 304.995 305.005 304.781 304.791 305.005 305.013 304.791 304.798 305.013 305.019 304.798 304.803 305.019 305.023 304.803 304.804 305.023 305.024 304.909 304.91 305.149 305.15 304.91 304.914 305.15 305.153 304.914 304.92 305.153 305.158 304.92 304.928 305.158 305.165 304.928 304.938 305.165 305.173 304.938 304.949 305.173 305.183 304.949 304.961 305.183 305.193 304.961 304.972 305.193 305.203 304.972 304.984 305.203 305.213 304.984 304.995 305.213 305.222 304.995 305.005 305.222 305.23 305.005 305.013 305.23 305.237 305.013 305.019 305.237 305.242 305.019 305.023 305.242 305.245 305.023 305.024 305.245 305.246 305.149 305.15 305.387 305.388 305.15 305.153 305.388 305.39 305.153 305.158 305.39 305.395 305.158 305.165 305.395 305.401 305.165 305.173 305.401 305.408 305.173 305.183 305.408 305.416 305.183 305.193 305.416 305.424 305.193 305.203 305.424 305.433 305.203 305.213 305.433 305.442 305.213 305.222 305.442 305.45 305.222 305.23 305.45 305.457 305.23 305.237 305.457 305.463 305.237 305.242 305.463 305.467 305.242 305.245 305.467 305.47 305.245 305.246 305.47 305.471 305.387 305.388 305.623 305.624 305.388 305.39 305.624 305.626 305.39 305.395 305.626 305.63 305.395 305.401 305.63 305.635 305.401 305.408 305.635 305.641 305.408 305.416 305.641 305.648 305.416 305.424 305.648 305.656 305.424 305.433 305.656 305.664 305.433 305.442 305.664 305.671 305.442 305.45 305.671 305.678 305.45 305.457 305.678 305.685 305.457 305.463 305.685 305.69 305.463 305.467 305.69 305.694 305.467 305.47 305.694 305.696 305.47 305.471 305.696 305.697 305.623 305.624 305.857 305.858 305.624 305.626 305.858 305.86 305.626 305.63 305.86 305.864 305.63 305.635 305.864 305.868 305.635 305.641 305.868 305.874 305.641 305.648 305.874 305.88 305.648 305.656 305.88 305.887 305.656 305.664 305.887 305.894 305.664 305.671 305.894 305.901 305.671 305.678 305.901 305.908 305.678 305.685 305.908 305.914 305.685 305.69 305.914 305.918 305.69 305.694 305.918 305.922 305.694 305.696 305.922 305.924 305.696 305.697 305.924 305.925 305.857 305.858 306.09 306.091 305.858 305.86 306.091 306.093 305.86 305.864 306.093 306.096 305.864 305.868 306.096 306.1 305.868 305.874 306.1 306.106 305.874 305.88 306.106 306.112 305.88 305.887 306.112 306.119 305.887 305.894 306.119 306.125 305.894 305.901 306.125 306.132 305.901 305.908 306.132 306.138 305.908 305.914 306.138 306.143 305.914 305.918 306.143 306.148 305.918 305.922 306.148 306.151 305.922 305.924 306.151 306.154 305.924 305.925 306.154 306.154 306.09 306.091 306.321 306.322 306.091 306.093 306.322 306.324 306.093 306.096 306.324 306.327 306.096 306.1 306.327 306.332 306.1 306.106 306.332 306.337 306.106 306.112 306.337 306.343 306.112 306.119 306.343 306.35 306.119 306.125 306.35 306.356 306.125 306.132 306.356 306.363 306.132 306.138 306.363 306.369 306.138 306.143 306.369 306.374 306.143 306.148 306.374 306.379 306.148 306.151 306.379 306.382 306.151 306.154 306.382 306.384 306.154 306.154 306.384 306.385 306.321 306.322 306.551 306.552 306.322 306.324 306.552 306.554 306.324 306.327 306.554 306.558 306.327 306.332 306.558 306.562 306.332 306.337 306.562 306.568 306.337 306.343 306.568 306.574 306.343 306.35 306.574 306.581 306.35 306.356 306.581 306.588 306.356 306.363 306.588 306.594 306.363 306.369 306.594 306.601 306.369 306.374 306.601 306.606 306.374 306.379 306.606 306.611 306.379 306.382 306.611 306.614 306.382 306.384 306.614 306.617 306.384 306.385 306.617 306.617 306.551 306.552 306.78 306.781 306.552 306.554 306.781 306.783 306.554 306.558 306.783 306.787 306.558 306.562 306.787 306.792 306.562 306.568 306.792 306.797 306.568 306.574 306.797 306.804 306.574 306.581 306.804 306.811 306.581 306.588 306.811 306.819 306.588 306.594 306.819 306.826 306.594 306.601 306.826 306.833 306.601 306.606 306.833 306.839 306.606 306.611 306.839 306.844 306.611 306.614 306.844 306.848 306.614 306.617 306.848 306.85 306.617 306.617 306.85 306.851 306.78 306.781 307.007 307.008 306.781 306.783 307.008 307.01 306.783 306.787 307.01 307.014 306.787 306.792 307.014 307.02 306.792 306.797 307.02 307.026 306.797 306.804 307.026 307.034 306.804 306.811 307.034 307.042 306.811 306.819 307.042 307.05 306.819 306.826 307.05 307.058 306.826 306.833 307.058 307.066 306.833 306.839 307.066 307.073 306.839 306.844 307.073 307.079 306.844 306.848 307.079 307.083 306.848 306.85 307.083 307.085 306.85 306.851 307.085 307.086 307.007 307.008 307.232 307.233 307.008 307.01 307.233 307.236 307.01 307.014 307.236 307.241 307.014 307.02 307.241 307.247 307.02 307.026 307.247 307.255 307.026 307.034 307.255 307.263 307.034 307.042 307.263 307.272 307.042 307.05 307.272 307.282 307.05 307.058 307.282 307.291 307.058 307.066 307.291 307.3 307.066 307.073 307.3 307.308 307.073 307.079 307.308 307.314 307.079 307.083 307.314 307.319 307.083 307.085 307.319 307.322 307.085 307.086 307.322 307.323 307.232 307.233 307.456 307.457 307.233 307.236 307.457 307.46 307.236 307.241 307.46 307.466 307.241 307.247 307.466 307.473 307.247 307.255 307.473 307.482 307.255 307.263 307.482 307.492 307.263 307.272 307.492 307.502 307.272 307.282 307.502 307.514 307.282 307.291 307.514 307.525 307.291 307.3 307.525 307.535 307.3 307.308 307.535 307.544 307.308 307.314 307.544 307.552 307.314 307.319 307.552 307.558 307.319 307.322 307.558 307.561 307.322 307.323 307.561 307.563 307.456 307.457 307.677 307.678 307.457 307.46 307.678 307.682 307.46 307.466 307.682 307.689 307.466 307.473 307.689 307.697 307.473 307.482 307.697 307.707 307.482 307.492 307.707 307.719 307.492 307.502 307.719 307.732 307.502 307.514 307.732 307.745 307.514 307.525 307.745 307.759 307.525 307.535 307.759 307.771 307.535 307.544 307.771 307.782 307.544 307.552 307.782 307.792 307.552 307.558 307.792 307.799 307.558 307.561 307.799 307.803 307.561 307.563 307.803 307.804 307.677 307.678 307.896 307.897 307.678 307.682 307.897 307.902 307.682 307.689 307.902 307.909 307.689 307.697 307.909 307.919 307.697 307.707 307.919 307.932 307.707 307.719 307.932 307.946 307.719 307.732 307.946 307.961 307.732 307.745 307.961 307.977 307.745 307.759 307.977 307.993 307.759 307.771 307.993 308.008 307.771 307.782 308.008 308.022 307.782 307.792 308.022 308.033 307.792 307.799 308.033 308.042 307.799 307.803 308.042 308.047 307.803 307.804 308.047 308.049 307.896 307.897 308.111 308.113 307.897 307.902 308.113 308.118 307.902 307.909 308.118 308.127 307.909 307.919 308.127 308.139 307.919 307.932 308.139 308.154 307.932 307.946 308.154 308.171 307.946 307.961 308.171 308.19 307.961 307.977 308.19 308.209 307.977 307.993 308.209 308.229 307.993 308.008 308.229 308.247 308.008 308.022 308.247 308.264 308.022 308.033 308.264 308.278 308.033 308.042 308.278 308.289 308.042 308.047 308.289 308.295 308.047 308.049 308.295 308.297 308.111 308.113 308.323 308.325 308.113 308.118 308.325 308.331 308.118 308.127 308.331 308.342 308.127 308.139 308.342 308.357 308.139 308.154 308.357 308.375 308.154 308.171 308.375 308.395 308.171 308.19 308.395 308.418 308.19 308.209 308.418 308.441 308.209 308.229 308.441 308.465 308.229 308.247 308.465 308.488 308.247 308.264 308.488 308.509 308.264 308.278 308.509 308.526 308.278 308.289 308.526 308.539 308.289 308.295 308.539 308.547 308.295 308.297 308.547 308.55 308.323 308.325 308.53 308.533 308.325 308.331 308.533 308.54 308.331 308.342 308.54 308.553 308.342 308.357 308.553 308.571 308.357 308.375 308.571 308.592 308.375 308.395 308.592 308.617 308.395 308.418 308.617 308.645 308.418 308.441 308.645 308.673 308.441 308.465 308.673 308.703 308.465 308.488 308.703 308.731 308.488 308.509 308.731 308.756 308.509 308.526 308.756 308.778 308.526 308.539 308.778 308.795 308.539 308.547 308.795 308.805 308.547 308.55 308.805 308.809 308.53 308.533 308.732 308.735 308.533 308.54 308.735 308.744 308.54 308.553 308.744 308.76 308.553 308.571 308.76 308.781 308.571 308.592 308.781 308.806 308.592 308.617 308.806 308.837 308.617 308.645 308.837 308.87 308.645 308.673 308.87 308.905 308.673 308.703 308.905 308.941 308.703 308.731 308.941 308.976 308.731 308.756 308.976 309.008 308.756 308.778 309.008 309.036 308.778 308.795 309.036 309.057 308.795 308.805 309.057 309.07 308.805 308.809 309.07 309.075 308.732 308.735 308.927 308.931 308.735 308.744 308.931 308.942 308.744 308.76 308.942 308.96 308.76 308.781 308.96 308.985 308.781 308.806 308.985 309.016 308.806 308.837 309.016 309.053 308.837 308.87 309.053 309.093 308.87 308.905 309.093 309.136 308.905 308.941 309.136 309.181 308.941 308.976 309.181 309.224 308.976 309.008 309.224 309.264 309.008 309.036 309.264 309.299 309.036 309.057 309.299 309.327 309.057 309.07 309.327 309.344 309.07 309.075 309.344 309.35 308.927 308.931 309.115 309.12 308.931 308.942 309.12 309.133 308.942 308.96 309.133 309.155 308.96 308.985 309.155 309.184 308.985 309.016 309.184 309.221 309.016 309.053 309.221 309.265 309.053 309.093 309.265 309.313 309.093 309.136 309.313 309.366 309.136 309.181 309.366 309.421 309.181 309.224 309.421 309.475 309.224 309.264 309.475 309.526 309.264 309.299 309.526 309.571 309.299 309.327 309.571 309.606 309.327 309.344 309.606 309.629 309.344 309.35 309.629 309.637 309.115 309.12 309.295 309.3 309.12 309.133 309.3 309.315 309.133 309.155 309.315 309.341 309.155 309.184 309.341 309.375 309.184 309.221 309.375 309.419 309.221 309.265 309.419 309.471 309.265 309.313 309.471 309.53 309.313 309.366 309.53 309.594 309.366 309.421 309.594 309.661 309.421 309.475 309.661 309.729 309.475 309.526 309.729 309.794 309.526 309.571 309.794 309.852 309.571 309.606 309.852 309.899 309.606 309.629 309.899 309.929 309.629 309.637 309.929 309.94 309.295 309.3 309.463 309.469 309.3 309.315 309.469 309.487 309.315 309.341 309.487 309.517 309.341 309.375 309.517 309.558 309.375 309.419 309.558 309.609 309.419 309.471 309.609 309.671 309.471 309.53 309.671 309.741 309.53 309.594 309.741 309.819 309.594 309.661 309.819 309.901 309.661 309.729 309.901 309.986 309.729 309.794 309.986 310.069 309.794 309.852 310.069 310.145 309.852 309.899 310.145 310.208 309.899 309.929 310.208 310.25 309.929 309.94 310.25 310.265 309.463 309.469 309.62 309.627 309.469 309.487 309.627 309.648 309.487 309.517 309.648 309.682 309.517 309.558 309.682 309.729 309.558 309.609 309.729 309.79 309.609 309.671 309.79 309.862 309.671 309.741 309.862 309.945 309.741 309.819 309.945 310.038 309.819 309.901 310.038 310.138 309.901 309.986 310.138 310.244 309.986 310.069 310.244 310.35 310.069 310.145 310.35 310.451 310.145 310.208 310.451 310.538 310.208 310.25 310.538 310.598 310.25 310.265 310.598 310.62 309.62 309.627 309.763 309.771 309.627 309.648 309.771 309.795 309.648 309.682 309.795 309.834 309.682 309.729 309.834 309.888 309.729 309.79 309.888 309.958 309.79 309.862 309.958 310.042 309.862 309.945 310.042 310.139 309.945 310.038 310.139 310.249 310.038 310.138 310.249 310.371 310.138 310.244 310.371 310.501 310.244 310.35 310.501 310.636 310.35 310.451 310.636 310.77 310.451 310.538 310.77 310.893 310.538 310.598 310.893 310.986 310.598 310.62 310.986 311.023 309.763 309.771 309.891 309.899 309.771 309.795 309.899 309.926 309.795 309.834 309.926 309.97 309.834 309.888 309.97 310.032 309.888 309.958 310.032 310.111 309.958 310.042 310.111 310.208 310.042 310.139 310.208 310.321 310.139 310.249 310.321 310.45 310.249 310.371 310.45 310.594 310.371 310.501 310.594 310.752 310.501 310.636 310.752 310.922 310.636 310.77 310.922 311.1 310.77 310.893 311.1 311.277 310.893 310.986 311.277 311.432 310.986 311.023 311.432 311.509 309.891 309.899 310 310.01 309.899 309.926 310.01 310.04 309.926 309.97 310.04 310.089 309.97 310.032 310.089 310.159 310.032 310.111 310.159 310.248 310.111 310.208 310.248 310.357 310.208 310.321 310.357 310.486 310.321 310.45 310.486 310.635 310.45 310.594 310.635 310.804 310.594 310.752 310.804 310.992 310.752 310.922 310.992 311.2 310.922 311.1 311.2 311.428 311.1 311.277 311.428 311.676 311.277 311.432 311.676 311.944 311.432 311.509 311.944 312.232 
