# vtk DataFile Version 3.0
#This file was generated by the deal.II library on 2018/11/18 at 19:28:01
ASCII
DATASET UNSTRUCTURED_GRID

POINTS 4096 double
0 0 0
0.005 0 0
0 0.005 0
0.005 0.005 0
0 0 0.005
0.005 0 0.005
0 0.005 0.005
0.005 0.005 0.005
0.005 0 0
0.01 0 0
0.005 0.005 0
0.01 0.005 0
0.005 0 0.005
0.01 0 0.005
0.005 0.005 0.005
0.01 0.005 0.005
0.01 0 0
0.015 0 0
0.01 0.005 0
0.015 0.005 0
0.01 0 0.005
0.015 0 0.005
0.01 0.005 0.005
0.015 0.005 0.005
0.015 0 0
0.02 0 0
0.015 0.005 0
0.02 0.005 0
0.015 0 0.005
0.02 0 0.005
0.015 0.005 0.005
0.02 0.005 0.005
0.02 0 0
0.025 0 0
0.02 0.005 0
0.025 0.005 0
0.02 0 0.005
0.025 0 0.005
0.02 0.005 0.005
0.025 0.005 0.005
0.025 0 0
0.03 0 0
0.025 0.005 0
0.03 0.005 0
0.025 0 0.005
0.03 0 0.005
0.025 0.005 0.005
0.03 0.005 0.005
0.03 0 0
0.035 0 0
0.03 0.005 0
0.035 0.005 0
0.03 0 0.005
0.035 0 0.005
0.03 0.005 0.005
0.035 0.005 0.005
0.035 0 0
0.04 0 0
0.035 0.005 0
0.04 0.005 0
0.035 0 0.005
0.04 0 0.005
0.035 0.005 0.005
0.04 0.005 0.005
0 0.005 0
0.005 0.005 0
0 0.01 0
0.005 0.01 0
0 0.005 0.005
0.005 0.005 0.005
0 0.01 0.005
0.005 0.01 0.005
0.005 0.005 0
0.01 0.005 0
0.005 0.01 0
0.01 0.01 0
0.005 0.005 0.005
0.01 0.005 0.005
0.005 0.01 0.005
0.01 0.01 0.005
0.01 0.005 0
0.015 0.005 0
0.01 0.01 0
0.015 0.01 0
0.01 0.005 0.005
0.015 0.005 0.005
0.01 0.01 0.005
0.015 0.01 0.005
0.015 0.005 0
0.02 0.005 0
0.015 0.01 0
0.02 0.01 0
0.015 0.005 0.005
0.02 0.005 0.005
0.015 0.01 0.005
0.02 0.01 0.005
0.02 0.005 0
0.025 0.005 0
0.02 0.01 0
0.025 0.01 0
0.02 0.005 0.005
0.025 0.005 0.005
0.02 0.01 0.005
0.025 0.01 0.005
0.025 0.005 0
0.03 0.005 0
0.025 0.01 0
0.03 0.01 0
0.025 0.005 0.005
0.03 0.005 0.005
0.025 0.01 0.005
0.03 0.01 0.005
0.03 0.005 0
0.035 0.005 0
0.03 0.01 0
0.035 0.01 0
0.03 0.005 0.005
0.035 0.005 0.005
0.03 0.01 0.005
0.035 0.01 0.005
0.035 0.005 0
0.04 0.005 0
0.035 0.01 0
0.04 0.01 0
0.035 0.005 0.005
0.04 0.005 0.005
0.035 0.01 0.005
0.04 0.01 0.005
0 0.01 0
0.005 0.01 0
0 0.015 0
0.005 0.015 0
0 0.01 0.005
0.005 0.01 0.005
0 0.015 0.005
0.005 0.015 0.005
0.005 0.01 0
0.01 0.01 0
0.005 0.015 0
0.01 0.015 0
0.005 0.01 0.005
0.01 0.01 0.005
0.005 0.015 0.005
0.01 0.015 0.005
0.01 0.01 0
0.015 0.01 0
0.01 0.015 0
0.015 0.015 0
0.01 0.01 0.005
0.015 0.01 0.005
0.01 0.015 0.005
0.015 0.015 0.005
0.015 0.01 0
0.02 0.01 0
0.015 0.015 0
0.02 0.015 0
0.015 0.01 0.005
0.02 0.01 0.005
0.015 0.015 0.005
0.02 0.015 0.005
0.02 0.01 0
0.025 0.01 0
0.02 0.015 0
0.025 0.015 0
0.02 0.01 0.005
0.025 0.01 0.005
0.02 0.015 0.005
0.025 0.015 0.005
0.025 0.01 0
0.03 0.01 0
0.025 0.015 0
0.03 0.015 0
0.025 0.01 0.005
0.03 0.01 0.005
0.025 0.015 0.005
0.03 0.015 0.005
0.03 0.01 0
0.035 0.01 0
0.03 0.015 0
0.035 0.015 0
0.03 0.01 0.005
0.035 0.01 0.005
0.03 0.015 0.005
0.035 0.015 0.005
0.035 0.01 0
0.04 0.01 0
0.035 0.015 0
0.04 0.015 0
0.035 0.01 0.005
0.04 0.01 0.005
0.035 0.015 0.005
0.04 0.015 0.005
0 0.015 0
0.005 0.015 0
0 0.02 0
0.005 0.02 0
0 0.015 0.005
0.005 0.015 0.005
0 0.02 0.005
0.005 0.02 0.005
0.005 0.015 0
0.01 0.015 0
0.005 0.02 0
0.01 0.02 0
0.005 0.015 0.005
0.01 0.015 0.005
0.005 0.02 0.005
0.01 0.02 0.005
0.01 0.015 0
0.015 0.015 0
0.01 0.02 0
0.015 0.02 0
0.01 0.015 0.005
0.015 0.015 0.005
0.01 0.02 0.005
0.015 0.02 0.005
0.015 0.015 0
0.02 0.015 0
0.015 0.02 0
0.02 0.02 0
0.015 0.015 0.005
0.02 0.015 0.005
0.015 0.02 0.005
0.02 0.02 0.005
0.02 0.015 0
0.025 0.015 0
0.02 0.02 0
0.025 0.02 0
0.02 0.015 0.005
0.025 0.015 0.005
0.02 0.02 0.005
0.025 0.02 0.005
0.025 0.015 0
0.03 0.015 0
0.025 0.02 0
0.03 0.02 0
0.025 0.015 0.005
0.03 0.015 0.005
0.025 0.02 0.005
0.03 0.02 0.005
0.03 0.015 0
0.035 0.015 0
0.03 0.02 0
0.035 0.02 0
0.03 0.015 0.005
0.035 0.015 0.005
0.03 0.02 0.005
0.035 0.02 0.005
0.035 0.015 0
0.04 0.015 0
0.035 0.02 0
0.04 0.02 0
0.035 0.015 0.005
0.04 0.015 0.005
0.035 0.02 0.005
0.04 0.02 0.005
0 0.02 0
0.005 0.02 0
0 0.025 0
0.005 0.025 0
0 0.02 0.005
0.005 0.02 0.005
0 0.025 0.005
0.005 0.025 0.005
0.005 0.02 0
0.01 0.02 0
0.005 0.025 0
0.01 0.025 0
0.005 0.02 0.005
0.01 0.02 0.005
0.005 0.025 0.005
0.01 0.025 0.005
0.01 0.02 0
0.015 0.02 0
0.01 0.025 0
0.015 0.025 0
0.01 0.02 0.005
0.015 0.02 0.005
0.01 0.025 0.005
0.015 0.025 0.005
0.015 0.02 0
0.02 0.02 0
0.015 0.025 0
0.02 0.025 0
0.015 0.02 0.005
0.02 0.02 0.005
0.015 0.025 0.005
0.02 0.025 0.005
0.02 0.02 0
0.025 0.02 0
0.02 0.025 0
0.025 0.025 0
0.02 0.02 0.005
0.025 0.02 0.005
0.02 0.025 0.005
0.025 0.025 0.005
0.025 0.02 0
0.03 0.02 0
0.025 0.025 0
0.03 0.025 0
0.025 0.02 0.005
0.03 0.02 0.005
0.025 0.025 0.005
0.03 0.025 0.005
0.03 0.02 0
0.035 0.02 0
0.03 0.025 0
0.035 0.025 0
0.03 0.02 0.005
0.035 0.02 0.005
0.03 0.025 0.005
0.035 0.025 0.005
0.035 0.02 0
0.04 0.02 0
0.035 0.025 0
0.04 0.025 0
0.035 0.02 0.005
0.04 0.02 0.005
0.035 0.025 0.005
0.04 0.025 0.005
0 0.025 0
0.005 0.025 0
0 0.03 0
0.005 0.03 0
0 0.025 0.005
0.005 0.025 0.005
0 0.03 0.005
0.005 0.03 0.005
0.005 0.025 0
0.01 0.025 0
0.005 0.03 0
0.01 0.03 0
0.005 0.025 0.005
0.01 0.025 0.005
0.005 0.03 0.005
0.01 0.03 0.005
0.01 0.025 0
0.015 0.025 0
0.01 0.03 0
0.015 0.03 0
0.01 0.025 0.005
0.015 0.025 0.005
0.01 0.03 0.005
0.015 0.03 0.005
0.015 0.025 0
0.02 0.025 0
0.015 0.03 0
0.02 0.03 0
0.015 0.025 0.005
0.02 0.025 0.005
0.015 0.03 0.005
0.02 0.03 0.005
0.02 0.025 0
0.025 0.025 0
0.02 0.03 0
0.025 0.03 0
0.02 0.025 0.005
0.025 0.025 0.005
0.02 0.03 0.005
0.025 0.03 0.005
0.025 0.025 0
0.03 0.025 0
0.025 0.03 0
0.03 0.03 0
0.025 0.025 0.005
0.03 0.025 0.005
0.025 0.03 0.005
0.03 0.03 0.005
0.03 0.025 0
0.035 0.025 0
0.03 0.03 0
0.035 0.03 0
0.03 0.025 0.005
0.035 0.025 0.005
0.03 0.03 0.005
0.035 0.03 0.005
0.035 0.025 0
0.04 0.025 0
0.035 0.03 0
0.04 0.03 0
0.035 0.025 0.005
0.04 0.025 0.005
0.035 0.03 0.005
0.04 0.03 0.005
0 0.03 0
0.005 0.03 0
0 0.035 0
0.005 0.035 0
0 0.03 0.005
0.005 0.03 0.005
0 0.035 0.005
0.005 0.035 0.005
0.005 0.03 0
0.01 0.03 0
0.005 0.035 0
0.01 0.035 0
0.005 0.03 0.005
0.01 0.03 0.005
0.005 0.035 0.005
0.01 0.035 0.005
0.01 0.03 0
0.015 0.03 0
0.01 0.035 0
0.015 0.035 0
0.01 0.03 0.005
0.015 0.03 0.005
0.01 0.035 0.005
0.015 0.035 0.005
0.015 0.03 0
0.02 0.03 0
0.015 0.035 0
0.02 0.035 0
0.015 0.03 0.005
0.02 0.03 0.005
0.015 0.035 0.005
0.02 0.035 0.005
0.02 0.03 0
0.025 0.03 0
0.02 0.035 0
0.025 0.035 0
0.02 0.03 0.005
0.025 0.03 0.005
0.02 0.035 0.005
0.025 0.035 0.005
0.025 0.03 0
0.03 0.03 0
0.025 0.035 0
0.03 0.035 0
0.025 0.03 0.005
0.03 0.03 0.005
0.025 0.035 0.005
0.03 0.035 0.005
0.03 0.03 0
0.035 0.03 0
0.03 0.035 0
0.035 0.035 0
0.03 0.03 0.005
0.035 0.03 0.005
0.03 0.035 0.005
0.035 0.035 0.005
0.035 0.03 0
0.04 0.03 0
0.035 0.035 0
0.04 0.035 0
0.035 0.03 0.005
0.04 0.03 0.005
0.035 0.035 0.005
0.04 0.035 0.005
0 0.035 0
0.005 0.035 0
0 0.04 0
0.005 0.04 0
0 0.035 0.005
0.005 0.035 0.005
0 0.04 0.005
0.005 0.04 0.005
0.005 0.035 0
0.01 0.035 0
0.005 0.04 0
0.01 0.04 0
0.005 0.035 0.005
0.01 0.035 0.005
0.005 0.04 0.005
0.01 0.04 0.005
0.01 0.035 0
0.015 0.035 0
0.01 0.04 0
0.015 0.04 0
0.01 0.035 0.005
0.015 0.035 0.005
0.01 0.04 0.005
0.015 0.04 0.005
0.015 0.035 0
0.02 0.035 0
0.015 0.04 0
0.02 0.04 0
0.015 0.035 0.005
0.02 0.035 0.005
0.015 0.04 0.005
0.02 0.04 0.005
0.02 0.035 0
0.025 0.035 0
0.02 0.04 0
0.025 0.04 0
0.02 0.035 0.005
0.025 0.035 0.005
0.02 0.04 0.005
0.025 0.04 0.005
0.025 0.035 0
0.03 0.035 0
0.025 0.04 0
0.03 0.04 0
0.025 0.035 0.005
0.03 0.035 0.005
0.025 0.04 0.005
0.03 0.04 0.005
0.03 0.035 0
0.035 0.035 0
0.03 0.04 0
0.035 0.04 0
0.03 0.035 0.005
0.035 0.035 0.005
0.03 0.04 0.005
0.035 0.04 0.005
0.035 0.035 0
0.04 0.035 0
0.035 0.04 0
0.04 0.04 0
0.035 0.035 0.005
0.04 0.035 0.005
0.035 0.04 0.005
0.04 0.04 0.005
0 0.04 0
0.005 0.04 0
0 0.045 0
0.005 0.045 0
0 0.04 0.005
0.005 0.04 0.005
0 0.045 0.005
0.005 0.045 0.005
0.005 0.04 0
0.01 0.04 0
0.005 0.045 0
0.01 0.045 0
0.005 0.04 0.005
0.01 0.04 0.005
0.005 0.045 0.005
0.01 0.045 0.005
0.01 0.04 0
0.015 0.04 0
0.01 0.045 0
0.015 0.045 0
0.01 0.04 0.005
0.015 0.04 0.005
0.01 0.045 0.005
0.015 0.045 0.005
0.015 0.04 0
0.02 0.04 0
0.015 0.045 0
0.02 0.045 0
0.015 0.04 0.005
0.02 0.04 0.005
0.015 0.045 0.005
0.02 0.045 0.005
0.02 0.04 0
0.025 0.04 0
0.02 0.045 0
0.025 0.045 0
0.02 0.04 0.005
0.025 0.04 0.005
0.02 0.045 0.005
0.025 0.045 0.005
0.025 0.04 0
0.03 0.04 0
0.025 0.045 0
0.03 0.045 0
0.025 0.04 0.005
0.03 0.04 0.005
0.025 0.045 0.005
0.03 0.045 0.005
0.03 0.04 0
0.035 0.04 0
0.03 0.045 0
0.035 0.045 0
0.03 0.04 0.005
0.035 0.04 0.005
0.03 0.045 0.005
0.035 0.045 0.005
0.035 0.04 0
0.04 0.04 0
0.035 0.045 0
0.04 0.045 0
0.035 0.04 0.005
0.04 0.04 0.005
0.035 0.045 0.005
0.04 0.045 0.005
0 0.045 0
0.005 0.045 0
0 0.05 0
0.005 0.05 0
0 0.045 0.005
0.005 0.045 0.005
0 0.05 0.005
0.005 0.05 0.005
0.005 0.045 0
0.01 0.045 0
0.005 0.05 0
0.01 0.05 0
0.005 0.045 0.005
0.01 0.045 0.005
0.005 0.05 0.005
0.01 0.05 0.005
0.01 0.045 0
0.015 0.045 0
0.01 0.05 0
0.015 0.05 0
0.01 0.045 0.005
0.015 0.045 0.005
0.01 0.05 0.005
0.015 0.05 0.005
0.015 0.045 0
0.02 0.045 0
0.015 0.05 0
0.02 0.05 0
0.015 0.045 0.005
0.02 0.045 0.005
0.015 0.05 0.005
0.02 0.05 0.005
0.02 0.045 0
0.025 0.045 0
0.02 0.05 0
0.025 0.05 0
0.02 0.045 0.005
0.025 0.045 0.005
0.02 0.05 0.005
0.025 0.05 0.005
0.025 0.045 0
0.03 0.045 0
0.025 0.05 0
0.03 0.05 0
0.025 0.045 0.005
0.03 0.045 0.005
0.025 0.05 0.005
0.03 0.05 0.005
0.03 0.045 0
0.035 0.045 0
0.03 0.05 0
0.035 0.05 0
0.03 0.045 0.005
0.035 0.045 0.005
0.03 0.05 0.005
0.035 0.05 0.005
0.035 0.045 0
0.04 0.045 0
0.035 0.05 0
0.04 0.05 0
0.035 0.045 0.005
0.04 0.045 0.005
0.035 0.05 0.005
0.04 0.05 0.005
0 0.05 0
0.005 0.05 0
0 0.055 0
0.005 0.055 0
0 0.05 0.005
0.005 0.05 0.005
0 0.055 0.005
0.005 0.055 0.005
0.005 0.05 0
0.01 0.05 0
0.005 0.055 0
0.01 0.055 0
0.005 0.05 0.005
0.01 0.05 0.005
0.005 0.055 0.005
0.01 0.055 0.005
0.01 0.05 0
0.015 0.05 0
0.01 0.055 0
0.015 0.055 0
0.01 0.05 0.005
0.015 0.05 0.005
0.01 0.055 0.005
0.015 0.055 0.005
0.015 0.05 0
0.02 0.05 0
0.015 0.055 0
0.02 0.055 0
0.015 0.05 0.005
0.02 0.05 0.005
0.015 0.055 0.005
[...]
POINT_DATA 4096
SCALARS D double 1
LOOKUP_TABLE default
300 302.702 300.5 302.85 300.5 302.831 301 302.98 302.702 304.561 302.85 304.647 302.831 304.614 302.98 304.7 304.561 306.105 304.647 306.172 304.614 306.133 304.7 306.199 306.105 307.449 306.172 307.511 306.133 307.47 306.199 307.532 307.449 308.619 307.511 308.686 307.47 308.647 307.532 308.714 308.619 309.585 308.686 309.673 308.647 309.64 308.714 309.727 309.585 310.227 309.673 310.38 309.64 310.361 309.727 310.514 310.227 310 310.38 310.517 310.361 310.517 310.514 311.033 300.5 302.85 301 303.172 301 302.98 301.5 303.301 302.85 304.647 303.172 304.875 302.98 304.7 303.301 304.928 304.647 306.172 304.875 306.36 304.7 306.199 304.928 306.388 306.172 307.511 306.36 307.689 306.199 307.532 306.388 307.71 307.511 308.686 307.689 308.877 307.532 308.714 307.71 308.905 308.686 309.673 308.877 309.906 308.714 309.727 308.905 309.961 309.673 310.38 309.906 310.711 309.727 310.514 309.961 310.845 310.38 310.517 310.711 311.033 310.514 311.033 310.845 311.55 301 303.172 301.5 303.568 301.5 303.301 302 303.697 303.172 304.875 303.568 305.198 303.301 304.928 303.697 305.251 304.875 306.36 305.198 306.644 304.928 306.388 305.251 306.672 306.36 307.689 306.644 307.962 306.388 307.71 306.672 307.983 307.689 308.877 307.962 309.164 307.71 308.905 307.983 309.192 308.877 309.906 309.164 310.235 308.905 309.961 309.192 310.29 309.906 310.711 310.235 311.119 309.961 310.845 310.29 311.252 310.711 311.033 311.119 311.55 310.845 311.55 311.252 312.067 301.5 303.568 302 304.002 302 303.697 302.5 304.131 303.568 305.198 304.002 305.58 303.697 305.251 304.131 305.633 305.198 306.644 305.58 306.996 305.251 306.672 305.633 307.023 306.644 307.962 306.996 308.304 306.672 307.983 307.023 308.325 307.962 309.164 308.304 309.519 307.983 309.192 308.325 309.547 309.164 310.235 309.519 310.625 309.192 310.29 309.547 310.68 310.235 311.119 310.625 311.565 310.29 311.252 310.68 311.698 311.119 311.55 311.565 312.067 311.252 312.067 311.698 312.583 302 304.002 302.5 304.458 302.5 304.131 303 304.587 304.002 305.58 304.458 306 304.131 305.633 304.587 306.053 305.58 306.996 306 307.393 305.633 307.023 306.053 307.421 306.996 308.304 307.393 308.696 307.023 308.325 307.421 308.717 308.304 309.519 308.696 309.921 308.325 309.547 308.717 309.949 309.519 310.625 309.921 311.053 309.547 310.68 309.949 311.108 310.625 311.565 311.053 312.033 310.68 311.698 311.108 312.167 311.565 312.067 312.033 312.583 311.698 312.583 312.167 313.1 302.5 304.458 303 304.927 303 304.587 303.5 305.056 304.458 306 304.927 306.444 304.587 306.053 305.056 306.497 306 307.393 306.444 307.821 306.053 307.421 306.497 307.848 307.393 308.696 307.821 309.119 307.421 308.717 307.848 309.14 308.696 309.921 309.119 310.352 308.717 309.949 309.14 310.38 309.921 311.053 310.352 311.505 309.949 311.108 310.38 311.56 311.053 312.033 311.505 312.514 311.108 312.167 311.56 312.648 312.033 312.583 312.514 313.1 312.167 313.1 312.648 313.617 303 304.927 303.5 305.404 303.5 305.056 304 305.533 304.927 306.444 305.404 306.901 305.056 306.497 305.533 306.954 306.444 307.821 306.901 308.266 306.497 307.848 306.954 308.293 307.821 309.119 308.266 309.561 307.848 309.14 308.293 309.582 309.119 310.352 309.561 310.801 309.14 310.38 309.582 310.829 310.352 311.505 310.801 311.971 310.38 311.56 310.829 312.025 311.505 312.514 311.971 313.004 311.56 312.648 312.025 313.137 312.514 313.1 313.004 313.617 312.648 313.617 313.137 314.133 303.5 305.404 304 305.884 304 305.533 304.5 306.013 305.404 306.901 305.884 307.365 305.533 306.954 306.013 307.418 306.901 308.266 307.365 308.719 306.954 308.293 307.418 308.747 308.266 309.561 308.719 310.012 308.293 309.582 308.747 310.033 309.561 310.801 310.012 311.259 309.582 310.829 310.033 311.287 310.801 311.971 311.259 312.443 310.829 312.025 311.287 312.497 311.971 313.004 312.443 313.496 312.025 313.137 312.497 313.63 313.004 313.617 313.496 314.133 313.137 314.133 313.63 314.65 304 305.884 304.5 306.364 304.5 306.013 305 306.493 305.884 307.365 306.364 307.828 306.013 307.418 306.493 307.882 307.365 308.719 307.828 309.173 307.418 308.747 307.882 309.2 308.719 310.012 309.173 310.463 308.747 310.033 309.2 310.484 310.012 311.259 310.463 311.716 310.033 311.287 310.484 311.744 311.259 312.443 311.716 312.915 311.287 312.497 311.744 312.969 312.443 313.496 312.915 313.989 312.497 313.63 312.969 314.122 313.496 314.133 313.989 314.65 313.63 314.65 314.122 315.167 304.5 306.364 305 306.841 305 306.493 305.5 306.97 306.364 307.828 306.841 308.286 306.493 307.882 306.97 308.339 307.828 309.173 308.286 309.618 307.882 309.2 308.339 309.645 309.173 310.463 309.618 310.905 309.2 310.484 309.645 310.926 310.463 311.716 310.905 312.166 310.484 311.744 310.926 312.194 311.716 312.915 312.166 313.38 311.744 312.969 312.194 313.435 312.915 313.989 313.38 314.478 312.969 314.122 313.435 314.611 313.989 314.65 314.478 315.167 314.122 315.167 314.611 315.683 305 306.841 305.5 307.31 305.5 306.97 306 307.439 306.841 308.286 307.31 308.729 306.97 308.339 307.439 308.782 308.286 309.618 308.729 310.045 308.339 309.645 308.782 310.073 309.618 310.905 310.045 311.329 309.645 310.926 310.073 311.35 310.905 312.166 311.329 312.597 310.926 312.194 311.35 312.625 312.166 313.38 312.597 313.832 312.194 313.435 312.625 313.887 313.38 314.478 313.832 314.959 313.435 314.611 313.887 315.093 314.478 315.167 314.959 315.683 314.611 315.683 315.093 316.2 305.5 307.31 306 307.766 306 307.439 306.5 307.895 307.31 308.729 307.766 309.149 307.439 308.782 307.895 309.202 308.729 310.045 309.149 310.443 308.782 310.073 309.202 310.47 310.045 311.329 310.443 311.72 310.073 311.35 310.47 311.741 311.329 312.597 311.72 312.999 311.35 312.625 311.741 313.027 312.597 313.832 312.999 314.26 312.625 313.887 313.027 314.315 313.832 314.959 314.26 315.428 313.887 315.093 314.315 315.561 314.959 315.683 315.428 316.2 315.093 316.2 315.561 316.717 306 307.766 306.5 308.2 306.5 307.895 307 308.329 307.766 309.149 308.2 309.531 307.895 309.202 308.329 309.585 309.149 310.443 309.531 310.794 309.202 310.47 309.585 310.822 310.443 311.72 310.794 312.063 310.47 311.741 310.822 312.083 311.72 312.999 312.063 313.354 311.741 313.027 312.083 313.382 312.999 314.26 313.354 314.65 313.027 314.315 313.382 314.705 314.26 315.428 314.65 315.873 314.315 315.561 314.705 316.007 315.428 316.2 315.873 316.717 315.561 316.717 316.007 317.233 306.5 308.2 307 308.596 307 308.329 307.5 308.725 308.2 309.531 308.596 309.854 308.329 309.585 308.725 309.907 309.531 310.794 309.854 311.078 309.585 310.822 309.907 311.105 310.794 312.063 311.078 312.335 310.822 312.083 311.105 312.356 312.063 313.354 312.335 313.641 312.083 313.382 312.356 313.669 313.354 314.65 313.641 314.979 313.382 314.705 313.669 315.034 314.65 315.873 314.979 316.281 314.705 316.007 315.034 316.414 315.873 316.717 316.281 317.233 316.007 317.233 316.414 317.75 307 308.596 307.5 308.917 307.5 308.725 308 309.047 308.596 309.854 308.917 310.082 308.725 309.907 309.047 310.136 309.854 311.078 310.082 311.266 309.907 311.105 310.136 311.294 311.078 312.335 311.266 312.513 311.105 312.356 311.294 312.534 312.335 313.641 312.513 313.831 312.356 313.669 312.534 313.859 313.641 314.979 313.831 315.213 313.669 315.034 313.859 315.267 314.979 316.281 315.213 316.612 315.034 316.414 315.267 316.746 316.281 317.233 316.612 317.75 316.414 317.75 316.746 318.267 307.5 308.917 308 309.066 308 309.047 308.5 309.195 308.917 310.082 309.066 310.168 309.047 310.136 309.195 310.221 310.082 311.266 310.168 311.333 310.136 311.294 310.221 311.361 311.266 312.513 311.333 312.575 311.294 312.534 311.361 312.596 312.513 313.831 312.575 313.899 312.534 313.859 312.596 313.927 313.831 315.213 313.899 315.3 313.859 315.267 313.927 315.355 315.213 316.612 315.3 316.765 315.267 316.746 315.355 316.899 316.612 317.75 316.765 318.267 316.746 318.267 316.899 318.783 300.5 302.831 301 302.98 301 303.089 301.5 303.237 302.831 304.614 302.98 304.7 303.089 304.738 303.237 304.824 304.614 306.133 304.7 306.199 304.738 306.198 304.824 306.265 306.133 307.47 306.199 307.532 306.198 307.52 306.265 307.582 307.47 308.647 307.532 308.714 307.52 308.714 307.582 308.782 308.647 309.64 308.714 309.727 308.714 309.767 308.782 309.855 309.64 310.361 309.727 310.514 309.767 310.627 309.855 310.78 310.361 310.517 310.514 311.033 310.627 311.033 310.78 311.55 301 302.98 301.5 303.301 301.5 303.237 302 303.559 302.98 304.7 303.301 304.928 303.237 304.824 303.559 305.052 304.7 306.199 304.928 306.388 304.824 306.265 305.052 306.454 306.199 307.532 306.388 307.71 306.265 307.582 306.454 307.76 307.532 308.714 307.71 308.905 307.582 308.782 307.76 308.972 308.714 309.727 308.905 309.961 308.782 309.855 308.972 310.088 309.727 310.514 309.961 310.845 309.855 310.78 310.088 311.111 310.514 311.033 310.845 311.55 310.78 311.55 311.111 312.067 301.5 303.301 302 303.697 302 303.559 302.5 303.955 303.301 304.928 303.697 305.251 303.559 305.052 303.955 305.375 304.928 306.388 305.251 306.672 305.052 306.454 305.375 306.737 306.388 307.71 306.672 307.983 306.454 307.76 306.737 308.033 307.71 308.905 307.983 309.192 307.76 308.972 308.033 309.259 308.905 309.961 309.192 310.29 308.972 310.088 309.259 310.418 309.961 310.845 310.29 311.252 310.088 311.111 310.418 311.519 310.845 311.55 311.252 312.067 311.111 312.067 311.519 312.583 302 303.697 302.5 304.131 302.5 303.955 303 304.389 303.697 305.251 304.131 305.633 303.955 305.375 304.389 305.757 305.251 306.672 305.633 307.023 305.375 306.737 305.757 307.089 306.672 307.983 307.023 308.325 306.737 308.033 307.089 308.376 307.983 309.192 308.325 309.547 308.033 309.259 308.376 309.614 309.192 310.29 309.547 310.68 309.259 310.418 309.614 310.808 310.29 311.252 310.68 311.698 310.418 311.519 310.808 311.964 311.252 312.067 311.698 312.583 311.519 312.583 311.964 313.1 302.5 304.131 303 304.587 303 304.389 303.5 304.845 304.131 305.633 304.587 306.053 304.389 305.757 304.845 306.177 305.633 307.023 306.053 307.421 305.757 307.089 306.177 307.487 307.023 308.325 307.421 308.717 307.089 308.376 307.487 308.767 308.325 309.547 308.717 309.949 308.376 309.614 308.767 310.016 309.547 310.68 309.949 311.108 309.614 310.808 310.016 311.236 310.68 311.698 311.108 312.167 310.808 311.964 311.236 312.433 311.698 312.583 312.167 313.1 311.964 313.1 312.433 313.617 303 304.587 303.5 305.056 303.5 304.845 304 305.314 304.587 306.053 305.056 306.497 304.845 306.177 305.314 306.621 306.053 307.421 306.497 307.848 306.177 307.487 306.621 307.914 307.421 308.717 307.848 309.14 307.487 308.767 307.914 309.19 308.717 309.949 309.14 310.38 308.767 310.016 309.19 310.447 309.949 311.108 310.38 311.56 310.016 311.236 310.447 311.688 311.108 312.167 311.56 312.648 311.236 312.433 311.688 312.914 312.167 313.1 312.648 313.617 312.433 313.617 312.914 314.133 303.5 305.056 304 305.533 304 305.314 304.5 305.791 305.056 306.497 305.533 306.954 305.314 306.621 305.791 307.078 306.497 307.848 306.954 308.293 306.621 307.914 307.078 308.359 307.848 309.14 308.293 309.582 307.914 309.19 308.359 309.632 309.14 310.38 309.582 310.829 309.19 310.447 309.632 310.897 310.38 311.56 310.829 312.025 310.447 311.688 310.897 312.153 311.56 312.648 312.025 313.137 311.688 312.914 312.153 313.403 312.648 313.617 313.137 314.133 312.914 314.133 313.403 314.65 304 305.533 304.5 306.013 304.5 305.791 305 306.271 305.533 306.954 306.013 307.418 305.791 307.078 306.271 307.542 306.954 308.293 307.418 308.747 307.078 308.359 307.542 308.812 308.293 309.582 308.747 310.033 308.359 309.632 308.812 310.083 309.582 310.829 310.033 311.287 309.632 310.897 310.083 311.354 310.829 312.025 311.287 312.497 310.897 312.153 311.354 312.625 312.025 313.137 312.497 313.63 312.153 313.403 312.625 313.896 313.137 314.133 313.63 314.65 313.403 314.65 313.896 315.167 304.5 306.013 305 306.493 305 306.271 305.5 306.751 306.013 307.418 306.493 307.882 306.271 307.542 306.751 308.005 307.418 308.747 307.882 309.2 307.542 308.812 308.005 309.266 308.747 310.033 309.2 310.484 308.812 310.083 309.266 310.534 310.033 311.287 310.484 311.744 310.083 311.354 310.534 311.812 311.287 312.497 311.744 312.969 311.354 312.625 311.812 313.097 312.497 313.63 312.969 314.122 312.625 313.896 313.097 314.388 313.63 314.65 314.122 315.167 313.896 315.167 314.388 315.683 305 306.493 305.5 306.97 305.5 306.751 306 307.228 306.493 307.882 306.97 308.339 306.751 308.005 307.228 308.463 307.882 309.2 308.339 309.645 308.005 309.266 308.463 309.711 309.2 310.484 309.645 310.926 309.266 310.534 309.711 310.977 310.484 311.744 310.926 312.194 310.534 311.812 310.977 312.261 311.744 312.969 312.194 313.435 311.812 313.097 312.261 313.562 312.969 314.122 313.435 314.611 313.097 314.388 313.562 314.878 314.122 315.167 314.611 315.683 314.388 315.683 314.878 316.2 305.5 306.97 306 307.439 306 307.228 306.5 307.697 306.97 308.339 307.439 308.782 307.228 308.463 307.697 308.906 308.339 309.645 308.782 310.073 308.463 309.711 308.906 310.138 309.645 310.926 310.073 311.35 309.711 310.977 310.138 311.4 310.926 312.194 311.35 312.625 310.977 312.261 311.4 312.692 312.194 313.435 312.625 313.887 312.261 313.562 312.692 314.014 313.435 314.611 313.887 315.093 313.562 314.878 314.014 315.359 314.611 315.683 315.093 316.2 314.878 316.2 315.359 316.717 306 307.439 306.5 307.895 306.5 307.697 307 308.153 307.439 308.782 307.895 309.202 307.697 308.906 308.153 309.326 308.782 310.073 309.202 310.47 308.906 310.138 309.326 310.536 310.073 311.35 310.47 311.741 310.138 311.4 310.536 311.791 311.35 312.625 311.741 313.027 311.4 312.692 311.791 313.094 312.625 313.887 313.027 314.315 312.692 314.014 313.094 314.442 313.887 315.093 314.315 315.561 314.014 315.359 314.442 315.827 315.093 316.2 315.561 316.717 315.359 316.717 315.827 317.233 306.5 307.895 307 308.329 307 308.153 307.5 308.587 307.895 309.202 308.329 309.585 308.153 309.326 308.587 309.708 309.202 310.47 309.585 310.822 309.326 310.536 309.708 310.888 310.47 311.741 310.822 312.083 310.536 311.791 310.888 312.134 311.741 313.027 312.083 313.382 311.791 313.094 312.134 313.449 313.027 314.315 313.382 314.705 313.094 314.442 313.449 314.832 314.315 315.561 314.705 316.007 314.442 315.827 314.832 316.273 315.561 316.717 316.007 317.233 315.827 317.233 316.273 317.75 307 308.329 307.5 308.725 307.5 308.587 308 308.983 308.329 309.585 308.725 309.907 308.587 309.708 308.983 310.031 309.585 310.822 309.907 311.105 309.708 310.888 310.031 311.171 310.822 312.083 311.105 312.356 310.888 312.134 311.171 312.406 312.083 313.382 312.356 313.669 312.134 313.449 312.406 313.736 313.382 314.705 313.669 315.034 313.449 314.832 313.736 315.162 314.705 316.007 315.034 316.414 314.832 316.273 315.162 316.681 316.007 317.233 316.414 317.75 316.273 317.75 316.681 318.267 307.5 308.725 308 309.047 308 308.983 308.5 309.304 308.725 309.907 309.047 310.136 308.983 310.031 309.304 310.259 309.907 311.105 310.136 311.294 310.031 311.171 310.259 311.36 311.105 312.356 311.294 312.534 311.171 312.406 311.36 312.584 312.356 313.669 312.534 313.859 312.406 313.736 312.584 313.927 313.669 315.034 313.859 315.267 313.736 315.162 313.927 315.395 315.034 316.414 315.267 316.746 315.162 316.681 315.395 317.012 316.414 317.75 316.746 318.267 316.681 318.267 317.012 318.783 308 309.047 308.5 309.195 308.5 309.304 309 309.453 309.047 310.136 309.195 310.221 309.304 310.259 309.453 310.345 310.136 311.294 310.221 311.361 310.259 311.36 310.345 311.427 311.294 312.534 311.361 312.596 311.36 312.584 311.427 312.647 312.534 313.859 312.596 313.927 312.584 313.927 312.647 313.994 313.859 315.267 313.927 315.355 313.927 315.395 313.994 315.483 315.267 316.746 315.355 316.899 315.395 317.012 315.483 317.165 316.746 318.267 316.899 318.783 317.012 318.783 317.165 319.3 301 303.089 301.5 303.237 301.5 303.346 302 303.495 303.089 304.738 303.237 304.824 303.346 304.862 303.495 304.948 304.738 306.198 304.824 306.265 304.862 306.264 304.948 306.331 306.198 307.52 306.265 307.582 306.264 307.57 306.331 307.633 307.52 308.714 307.582 308.782 307.57 308.781 307.633 308.849 308.714 309.767 308.782 309.855 308.781 309.895 308.849 309.983 309.767 310.627 309.855 310.78 309.895 310.893 309.983 311.046 310.627 311.033 310.78 311.55 310.893 311.55 311.046 312.067 301.5 303.237 302 303.559 302 303.495 302.5 303.817 303.237 304.824 303.559 305.052 303.495 304.948 303.817 305.176 304.824 306.265 305.052 306.454 304.948 306.331 305.176 306.52 306.265 307.582 306.454 307.76 306.331 307.633 306.52 307.811 307.582 308.782 307.76 308.972 307.633 308.849 307.811 309.04 308.782 309.855 308.972 310.088 308.849 309.983 309.04 310.216 309.855 310.78 310.088 311.111 309.983 311.046 310.216 311.377 310.78 311.55 311.111 312.067 311.046 312.067 311.377 312.583 302 303.559 302.5 303.955 302.5 303.817 303 304.213 303.559 305.052 303.955 305.375 303.817 305.176 304.213 305.499 305.052 306.454 305.375 306.737 305.176 306.52 305.499 306.803 306.454 307.76 306.737 308.033 306.52 307.811 306.803 308.083 307.76 308.972 308.033 309.259 307.811 309.04 308.083 309.326 308.972 310.088 309.259 310.418 309.04 310.216 309.326 310.545 310.088 311.111 310.418 311.519 310.216 311.377 310.545 311.785 311.111 312.067 311.519 312.583 311.377 312.583 311.785 313.1 302.5 303.955 303 304.389 303 304.213 303.5 304.647 303.955 305.375 304.389 305.757 304.213 305.499 304.647 305.881 305.375 306.737 305.757 307.089 305.499 306.803 305.881 307.155 306.737 308.033 307.089 308.376 306.803 308.083 307.155 308.426 308.033 309.259 308.376 309.614 308.083 309.326 308.426 309.682 309.259 310.418 309.614 310.808 309.326 310.545 309.682 310.935 310.418 311.519 310.808 311.964 310.545 311.785 310.935 312.231 311.519 312.583 311.964 313.1 311.785 313.1 312.231 313.617 303 304.389 303.5 304.845 303.5 304.647 304 305.103 304.389 305.757 304.845 306.177 304.647 305.881 305.103 306.301 305.757 307.089 306.177 307.487 305.881 307.155 306.301 307.552 307.089 308.376 307.487 308.767 307.155 308.426 307.552 308.817 308.376 309.614 308.767 310.016 308.426 309.682 308.817 310.083 309.614 310.808 310.016 311.236 309.682 310.935 310.083 311.363 310.808 311.964 311.236 312.433 310.935 312.231 311.363 312.699 311.964 313.1 312.433 313.617 312.231 313.617 312.699 314.133 303.5 304.845 304 305.314 304 305.103 304.5 305.572 304.845 306.177 305.314 306.621 305.103 306.301 305.572 306.745 306.177 307.487 306.621 307.914 306.301 307.552 306.745 307.98 307.487 308.767 307.914 309.19 307.552 308.817 307.98 309.24 308.767 310.016 309.19 310.447 308.817 310.083 309.24 310.515 310.016 311.236 310.447 311.688 310.083 311.363 310.515 311.815 311.236 312.433 311.688 312.914 311.363 312.699 311.815 313.18 312.433 313.617 312.914 314.133 312.699 314.133 313.18 314.65 304 305.314 304.5 305.791 304.5 305.572 305 306.048 305.314 306.621 305.791 307.078 305.572 306.745 306.048 307.202 306.621 307.914 307.078 308.359 306.745 307.98 307.202 308.425 307.914 309.19 308.359 309.632 307.98 309.24 308.425 309.683 309.19 310.447 309.632 310.897 309.24 310.515 309.683 310.964 310.447 311.688 310.897 312.153 310.515 311.815 310.964 312.281 311.688 312.914 312.153 313.403 311.815 313.18 312.281 313.669 312.914 314.133 313.403 314.65 313.18 314.65 313.669 315.167 304.5 305.791 305 306.271 305 306.048 305.5 306.528 305.791 307.078 306.271 307.542 306.048 307.202 306.528 307.665 307.078 308.359 307.542 308.812 307.202 308.425 307.665 308.878 308.359 309.632 308.812 310.083 308.425 309.683 308.878 310.134 309.632 310.897 310.083 311.354 309.683 310.964 310.134 311.421 310.897 312.153 311.354 312.625 310.964 312.281 311.421 312.753 312.153 313.403 312.625 313.896 312.281 313.669 312.753 314.162 313.403 314.65 313.896 315.167 313.669 315.167 314.162 315.683 305 306.271 305.5 306.751 305.5 306.528 306 307.009 306.271 307.542 306.751 308.005 306.528 307.665 307.009 308.129 307.542 308.812 308.005 309.266 307.665 308.878 308.129 309.332 308.812 310.083 309.266 310.534 308.878 310.134 309.332 310.585 310.083 311.354 310.534 311.812