# vtk DataFile Version 3.0
#This file was generated by the deal.II library on 2018/11/18 at 21:27:29
ASCII
DATASET UNSTRUCTURED_GRID

POINTS 400 double
0 0 0
0.003 0 0
0 0.008 0
0.003 0.008 0
0.003 0 0
0.006 0 0
0.003 0.008 0
0.006 0.008 0
0.006 0 0
0.009 0 0
0.006 0.008 0
0.009 0.008 0
0.009 0 0
0.012 0 0
0.009 0.008 0
0.012 0.008 0
0.012 0 0
0.015 0 0
0.012 0.008 0
0.015 0.008 0
0.015 0 0
0.018 0 0
0.015 0.008 0
0.018 0.008 0
0.018 0 0
0.021 0 0
0.018 0.008 0
0.021 0.008 0
0.021 0 0
0.024 0 0
0.021 0.008 0
0.024 0.008 0
0.024 0 0
0.027 0 0
0.024 0.008 0
0.027 0.008 0
0.027 0 0
0.03 0 0
0.027 0.008 0
0.03 0.008 0
0 0.008 0
0.003 0.008 0
0 0.016 0
0.003 0.016 0
0.003 0.008 0
0.006 0.008 0
0.003 0.016 0
0.006 0.016 0
0.006 0.008 0
0.009 0.008 0
0.006 0.016 0
0.009 0.016 0
0.009 0.008 0
0.012 0.008 0
0.009 0.016 0
0.012 0.016 0
0.012 0.008 0
0.015 0.008 0
0.012 0.016 0
0.015 0.016 0
0.015 0.008 0
0.018 0.008 0
0.015 0.016 0
0.018 0.016 0
0.018 0.008 0
0.021 0.008 0
0.018 0.016 0
0.021 0.016 0
0.021 0.008 0
0.024 0.008 0
0.021 0.016 0
0.024 0.016 0
0.024 0.008 0
0.027 0.008 0
0.024 0.016 0
0.027 0.016 0
0.027 0.008 0
0.03 0.008 0
0.027 0.016 0
0.03 0.016 0
0 0.016 0
0.003 0.016 0
0 0.024 0
0.003 0.024 0
0.003 0.016 0
0.006 0.016 0
0.003 0.024 0
0.006 0.024 0
0.006 0.016 0
0.009 0.016 0
0.006 0.024 0
0.009 0.024 0
0.009 0.016 0
0.012 0.016 0
0.009 0.024 0
0.012 0.024 0
0.012 0.016 0
0.015 0.016 0
0.012 0.024 0
0.015 0.024 0
0.015 0.016 0
0.018 0.016 0
0.015 0.024 0
0.018 0.024 0
0.018 0.016 0
0.021 0.016 0
0.018 0.024 0
0.021 0.024 0
0.021 0.016 0
0.024 0.016 0
0.021 0.024 0
0.024 0.024 0
0.024 0.016 0
0.027 0.016 0
0.024 0.024 0
0.027 0.024 0
0.027 0.016 0
0.03 0.016 0
0.027 0.024 0
0.03 0.024 0
0 0.024 0
0.003 0.024 0
0 0.032 0
0.003 0.032 0
0.003 0.024 0
0.006 0.024 0
0.003 0.032 0
0.006 0.032 0
0.006 0.024 0
0.009 0.024 0
0.006 0.032 0
0.009 0.032 0
0.009 0.024 0
0.012 0.024 0
0.009 0.032 0
0.012 0.032 0
0.012 0.024 0
0.015 0.024 0
0.012 0.032 0
0.015 0.032 0
0.015 0.024 0
0.018 0.024 0
0.015 0.032 0
0.018 0.032 0
0.018 0.024 0
0.021 0.024 0
0.018 0.032 0
0.021 0.032 0
0.021 0.024 0
0.024 0.024 0
0.021 0.032 0
0.024 0.032 0
0.024 0.024 0
0.027 0.024 0
0.024 0.032 0
0.027 0.032 0
0.027 0.024 0
0.03 0.024 0
0.027 0.032 0
0.03 0.032 0
0 0.032 0
0.003 0.032 0
0 0.04 0
0.003 0.04 0
0.003 0.032 0
0.006 0.032 0
0.003 0.04 0
0.006 0.04 0
0.006 0.032 0
0.009 0.032 0
0.006 0.04 0
0.009 0.04 0
0.009 0.032 0
0.012 0.032 0
0.009 0.04 0
0.012 0.04 0
0.012 0.032 0
0.015 0.032 0
0.012 0.04 0
0.015 0.04 0
0.015 0.032 0
0.018 0.032 0
0.015 0.04 0
0.018 0.04 0
0.018 0.032 0
0.021 0.032 0
0.018 0.04 0
0.021 0.04 0
0.021 0.032 0
0.024 0.032 0
0.021 0.04 0
0.024 0.04 0
0.024 0.032 0
0.027 0.032 0
0.024 0.04 0
0.027 0.04 0
0.027 0.032 0
0.03 0.032 0
0.027 0.04 0
0.03 0.04 0
0 0.04 0
0.003 0.04 0
0 0.048 0
0.003 0.048 0
0.003 0.04 0
0.006 0.04 0
0.003 0.048 0
0.006 0.048 0
0.006 0.04 0
0.009 0.04 0
0.006 0.048 0
0.009 0.048 0
0.009 0.04 0
0.012 0.04 0
0.009 0.048 0
0.012 0.048 0
0.012 0.04 0
0.015 0.04 0
0.012 0.048 0
0.015 0.048 0
0.015 0.04 0
0.018 0.04 0
0.015 0.048 0
0.018 0.048 0
0.018 0.04 0
0.021 0.04 0
0.018 0.048 0
0.021 0.048 0
0.021 0.04 0
0.024 0.04 0
0.021 0.048 0
0.024 0.048 0
0.024 0.04 0
0.027 0.04 0
0.024 0.048 0
0.027 0.048 0
0.027 0.04 0
0.03 0.04 0
0.027 0.048 0
0.03 0.048 0
0 0.048 0
0.003 0.048 0
0 0.056 0
0.003 0.056 0
0.003 0.048 0
0.006 0.048 0
0.003 0.056 0
0.006 0.056 0
0.006 0.048 0
0.009 0.048 0
0.006 0.056 0
0.009 0.056 0
0.009 0.048 0
0.012 0.048 0
0.009 0.056 0
0.012 0.056 0
0.012 0.048 0
0.015 0.048 0
0.012 0.056 0
0.015 0.056 0
0.015 0.048 0
0.018 0.048 0
0.015 0.056 0
0.018 0.056 0
0.018 0.048 0
0.021 0.048 0
0.018 0.056 0
0.021 0.056 0
0.021 0.048 0
0.024 0.048 0
0.021 0.056 0
0.024 0.056 0
0.024 0.048 0
0.027 0.048 0
0.024 0.056 0
0.027 0.056 0
0.027 0.048 0
0.03 0.048 0
0.027 0.056 0
0.03 0.056 0
0 0.056 0
0.003 0.056 0
0 0.064 0
0.003 0.064 0
0.003 0.056 0
0.006 0.056 0
0.003 0.064 0
0.006 0.064 0
0.006 0.056 0
0.009 0.056 0
0.006 0.064 0
0.009 0.064 0
0.009 0.056 0
0.012 0.056 0
0.009 0.064 0
0.012 0.064 0
0.012 0.056 0
0.015 0.056 0
0.012 0.064 0
0.015 0.064 0
0.015 0.056 0
0.018 0.056 0
0.015 0.064 0
0.018 0.064 0
0.018 0.056 0
0.021 0.056 0
0.018 0.064 0
0.021 0.064 0
0.021 0.056 0
0.024 0.056 0
0.021 0.064 0
0.024 0.064 0
0.024 0.056 0
0.027 0.056 0
0.024 0.064 0
0.027 0.064 0
0.027 0.056 0
0.03 0.056 0
0.027 0.064 0
0.03 0.064 0
0 0.064 0
0.003 0.064 0
0 0.072 0
0.003 0.072 0
0.003 0.064 0
0.006 0.064 0
0.003 0.072 0
0.006 0.072 0
0.006 0.064 0
0.009 0.064 0
0.006 0.072 0
0.009 0.072 0
0.009 0.064 0
0.012 0.064 0
0.009 0.072 0
0.012 0.072 0
0.012 0.064 0
0.015 0.064 0
0.012 0.072 0
0.015 0.072 0
0.015 0.064 0
0.018 0.064 0
0.015 0.072 0
0.018 0.072 0
0.018 0.064 0
0.021 0.064 0
0.018 0.072 0
0.021 0.072 0
0.021 0.064 0
0.024 0.064 0
0.021 0.072 0
0.024 0.072 0
0.024 0.064 0
0.027 0.064 0
0.024 0.072 0
0.027 0.072 0
0.027 0.064 0
0.03 0.064 0
0.027 0.072 0
0.03 0.072 0
0 0.072 0
0.003 0.072 0
0 0.08 0
0.003 0.08 0
0.003 0.072 0
0.006 0.072 0
0.003 0.08 0
0.006 0.08 0
0.006 0.072 0
0.009 0.072 0
0.006 0.08 0
0.009 0.08 0
0.009 0.072 0
0.012 0.072 0
0.009 0.08 0
0.012 0.08 0
0.012 0.072 0
0.015 0.072 0
0.012 0.08 0
0.015 0.08 0
0.015 0.072 0
0.018 0.072 0
0.015 0.08 0
0.018 0.08 0
0.018 0.072 0
0.021 0.072 0
0.018 0.08 0
0.021 0.08 0
0.021 0.072 0
0.024 0.072 0
0.021 0.08 0
0.024 0.08 0
0.024 0.072 0
0.027 0.072 0
0.024 0.08 0
0.027 0.08 0
0.027 0.072 0
0.03 0.072 0
0.027 0.08 0
0.03 0.08 0

CELLS 100 500
4	0	1	3	2
4	4	5	7	6
4	8	9	11	10
4	12	13	15	14
4	16	17	19	18
4	20	21	23	22
4	24	25	27	26
4	28	29	31	30
4	32	33	35	34
4	36	37	39	38
4	40	41	43	42
4	44	45	47	46
4	48	49	51	50
4	52	53	55	54
4	56	57	59	58
4	60	61	63	62
4	64	65	67	66
4	68	69	71	70
4	72	73	75	74
4	76	77	79	78
4	80	81	83	82
4	84	85	87	86
4	88	89	91	90
4	92	93	95	94
4	96	97	99	98
4	100	101	103	102
4	104	105	107	106
4	108	109	111	110
4	112	113	115	114
4	116	117	119	118
4	120	121	123	122
4	124	125	127	126
4	128	129	131	130
4	132	133	135	134
4	136	137	139	138
4	140	141	143	142
4	144	145	147	146
4	148	149	151	150
4	152	153	155	154
4	156	157	159	158
4	160	161	163	162
4	164	165	167	166
4	168	169	171	170
4	172	173	175	174
4	176	177	179	178
4	180	181	183	182
4	184	185	187	186
4	188	189	191	190
4	192	193	195	194
4	196	197	199	198
4	200	201	203	202
4	204	205	207	206
4	208	209	211	210
4	212	213	215	214
4	216	217	219	218
4	220	221	223	222
4	224	225	227	226
4	228	229	231	230
4	232	233	235	234
4	236	237	239	238
4	240	241	243	242
4	244	245	247	246
4	248	249	251	250
4	252	253	255	254
4	256	257	259	258
4	260	261	263	262
4	264	265	267	266
4	268	269	271	270
4	272	273	275	274
4	276	277	279	278
4	280	281	283	282
4	284	285	287	286
4	288	289	291	290
4	292	293	295	294
4	296	297	299	298
4	300	301	303	302
4	304	305	307	306
4	308	309	311	310
4	312	313	315	314
4	316	317	319	318
4	320	321	323	322
4	324	325	327	326
4	328	329	331	330
4	332	333	335	334
4	336	337	339	338
4	340	341	343	342
4	344	345	347	346
4	348	349	351	350
4	352	353	355	354
4	356	357	359	358
4	360	361	363	362
4	364	365	367	366
4	368	369	371	370
4	372	373	375	374
4	376	377	379	378
4	380	381	383	382
4	384	385	387	386
4	388	389	391	390
4	392	393	395	394
4	396	397	399	398

CELL_TYPES 100
 9 9 9 9 9 9 9 9 9 9 9 9 9 9 9 9 9 9 9 9 9 9 9 9 9 9 9 9 9 9 9 9 9 9 9 9 9 9 9 9 9 9 9 9 9 9 9 9 9 9 9 9 9 9 9 9 9 9 9 9 9 9 9 9 9 9 9 9 9 9 9 9 9 9 9 9 9 9 9 9 9 9 9 9 9 9 9 9 9 9 9 9 9 9 9 9 9 9 9 9
POINT_DATA 400
SCALARS D double 1
LOOKUP_TABLE default
100 99.9999 99.9996 99.9995 99.9999 99.9998 99.9995 99.9994 99.9998 99.9995 99.9994 99.9991 99.9995 99.9991 99.9991 99.9986 99.9991 99.9985 99.9986 99.9981 99.9985 99.9979 99.9981 99.9975 99.9979 99.9971 99.9975 99.9967 99.9971 99.9963 99.9967 99.9958 99.9963 99.9953 99.9958 99.9949 99.9953 99.9942 99.9949 99.9937 99.9996 99.9995 99.9983 99.9983 99.9995 99.9994 99.9983 99.9981 99.9994 99.9991 99.9981 99.9978 99.9991 99.9986 99.9978 99.9974 99.9986 99.9981 99.9974 99.9969 99.9981 99.9975 99.9969 99.9962 99.9975 99.9967 99.9962 99.9955 99.9967 99.9958 99.9955 99.9946 99.9958 99.9949 99.9946 99.9936 99.9949 99.9937 99.9936 99.9925 99.9983 99.9983 99.9963 99.9962 99.9983 99.9981 99.9962 99.996 99.9981 99.9978 99.996 99.9957 99.9978 99.9974 99.9957 99.9953 99.9974 99.9969 99.9953 99.9948 99.9969 99.9962 99.9948 99.9942 99.9962 99.9955 99.9942 99.9934 99.9955 99.9946 99.9934 99.9925 99.9946 99.9936 99.9925 99.9915 99.9936 99.9925 99.9915 99.9904 99.9963 99.9962 99.9933 99.9933 99.9962 99.996 99.9933 99.9931 99.996 99.9957 99.9931 99.9928 99.9957 99.9953 99.9928 99.9924 99.9953 99.9948 99.9924 99.9919 99.9948 99.9942 99.9919 99.9912 99.9942 99.9934 99.9912 99.9905 99.9934 99.9925 99.9905 99.9896 99.9925 99.9915 99.9896 99.9886 99.9915 99.9904 99.9886 99.9875 99.9933 99.9933 99.9896 99.9896 99.9933 99.9931 99.9896 99.9894 99.9931 99.9928 99.9894 99.9891 99.9928 99.9924 99.9891 99.9887 99.9924 99.9919 99.9887 99.9882 99.9919 99.9912 99.9882 99.9875 99.9912 99.9905 99.9875 99.9867 99.9905 99.9896 99.9867 99.9859 99.9896 99.9886 99.9859 99.9849 99.9886 99.9875 99.9849 99.9838 99.9896 99.9896 99.985 99.985 99.9896 99.9894 99.985 99.9848 99.9894 99.9891 99.9848 99.9845 99.9891 99.9887 99.9845 99.9841 99.9887 99.9882 99.9841 99.9836 99.9882 99.9875 99.9836 99.9829 99.9875 99.9867 99.9829 99.9822 99.9867 99.9859 99.9822 99.9813 99.9859 99.9849 99.9813 99.9803 99.9849 99.9838 99.9803 99.9792 99.985 99.985 99.9796 99.9796 99.985 99.9848 99.9796 99.9794 99.9848 99.9845 99.9794 99.9791 99.9845 99.9841 99.9791 99.9787 99.9841 99.9836 99.9787 99.9782 99.9836 99.9829 99.9782 99.9775 99.9829 99.9822 99.9775 99.9768 99.9822 99.9813 99.9768 99.9759 99.9813 99.9803 99.9759 99.9749 99.9803 99.9792 99.9749 99.9738 99.9796 99.9796 99.9734 99.9733 99.9796 99.9794 99.9733 99.9732 99.9794 99.9791 99.9732 99.9729 99.9791 99.9787 99.9729 99.9725 99.9787 99.9782 99.9725 99.9719 99.9782 99.9775 99.9719 99.9713 99.9775 99.9768 99.9713 99.9705 99.9768 99.9759 99.9705 99.9697 99.9759 99.9749 99.9697 99.9687 99.9749 99.9738 99.9687 99.9676 99.9734 99.9733 99.9663 99.9663 99.9733 99.9732 99.9663 99.9661 99.9732 99.9729 99.9661 99.9658 99.9729 99.9725 99.9658 99.9654 99.9725 99.9719 99.9654 99.9649 99.9719 99.9713 99.9649 99.9642 99.9713 99.9705 99.9642 99.9635 99.9705 99.9697 99.9635 99.9626 99.9697 99.9687 99.9626 99.9616 99.9687 99.9676 99.9616 99.9605 99.9663 99.9663 99.9584 99.9584 99.9663 99.9661 99.9584 99.9582 99.9661 99.9658 99.9582 99.9579 99.9658 99.9654 99.9579 99.9575 99.9654 99.9649 99.9575 99.957 99.9649 99.9642 99.957 99.9563 99.9642 99.9635 99.9563 99.9556 99.9635 99.9626 99.9556 99.9547 99.9626 99.9616 99.9547 99.9537 99.9616 99.9605 99.9537 99.9526 
