# vtk DataFile Version 3.0
#This file was generated by the deal.II library on 2018/11/18 at 19:30:11
ASCII
DATASET UNSTRUCTURED_GRID

POINTS 4096 double
0 0 0
0.005 0 0
0 0.005 0
0.005 0.005 0
0 0 0.005
0.005 0 0.005
0 0.005 0.005
0.005 0.005 0.005
0.005 0 0
0.01 0 0
0.005 0.005 0
0.01 0.005 0
0.005 0 0.005
0.01 0 0.005
0.005 0.005 0.005
0.01 0.005 0.005
0.01 0 0
0.015 0 0
0.01 0.005 0
0.015 0.005 0
0.01 0 0.005
0.015 0 0.005
0.01 0.005 0.005
0.015 0.005 0.005
0.015 0 0
0.02 0 0
0.015 0.005 0
0.02 0.005 0
0.015 0 0.005
0.02 0 0.005
0.015 0.005 0.005
0.02 0.005 0.005
0.02 0 0
0.025 0 0
0.02 0.005 0
0.025 0.005 0
0.02 0 0.005
0.025 0 0.005
0.02 0.005 0.005
0.025 0.005 0.005
0.025 0 0
0.03 0 0
0.025 0.005 0
0.03 0.005 0
0.025 0 0.005
0.03 0 0.005
0.025 0.005 0.005
0.03 0.005 0.005
0.03 0 0
0.035 0 0
0.03 0.005 0
0.035 0.005 0
0.03 0 0.005
0.035 0 0.005
0.03 0.005 0.005
0.035 0.005 0.005
0.035 0 0
0.04 0 0
0.035 0.005 0
0.04 0.005 0
0.035 0 0.005
0.04 0 0.005
0.035 0.005 0.005
0.04 0.005 0.005
0 0.005 0
0.005 0.005 0
0 0.01 0
0.005 0.01 0
0 0.005 0.005
0.005 0.005 0.005
0 0.01 0.005
0.005 0.01 0.005
0.005 0.005 0
0.01 0.005 0
0.005 0.01 0
0.01 0.01 0
0.005 0.005 0.005
0.01 0.005 0.005
0.005 0.01 0.005
0.01 0.01 0.005
0.01 0.005 0
0.015 0.005 0
0.01 0.01 0
0.015 0.01 0
0.01 0.005 0.005
0.015 0.005 0.005
0.01 0.01 0.005
0.015 0.01 0.005
0.015 0.005 0
0.02 0.005 0
0.015 0.01 0
0.02 0.01 0
0.015 0.005 0.005
0.02 0.005 0.005
0.015 0.01 0.005
0.02 0.01 0.005
0.02 0.005 0
0.025 0.005 0
0.02 0.01 0
0.025 0.01 0
0.02 0.005 0.005
0.025 0.005 0.005
0.02 0.01 0.005
0.025 0.01 0.005
0.025 0.005 0
0.03 0.005 0
0.025 0.01 0
0.03 0.01 0
0.025 0.005 0.005
0.03 0.005 0.005
0.025 0.01 0.005
0.03 0.01 0.005
0.03 0.005 0
0.035 0.005 0
0.03 0.01 0
0.035 0.01 0
0.03 0.005 0.005
0.035 0.005 0.005
0.03 0.01 0.005
0.035 0.01 0.005
0.035 0.005 0
0.04 0.005 0
0.035 0.01 0
0.04 0.01 0
0.035 0.005 0.005
0.04 0.005 0.005
0.035 0.01 0.005
0.04 0.01 0.005
0 0.01 0
0.005 0.01 0
0 0.015 0
0.005 0.015 0
0 0.01 0.005
0.005 0.01 0.005
0 0.015 0.005
0.005 0.015 0.005
0.005 0.01 0
0.01 0.01 0
0.005 0.015 0
0.01 0.015 0
0.005 0.01 0.005
0.01 0.01 0.005
0.005 0.015 0.005
0.01 0.015 0.005
0.01 0.01 0
0.015 0.01 0
0.01 0.015 0
0.015 0.015 0
0.01 0.01 0.005
0.015 0.01 0.005
0.01 0.015 0.005
0.015 0.015 0.005
0.015 0.01 0
0.02 0.01 0
0.015 0.015 0
0.02 0.015 0
0.015 0.01 0.005
0.02 0.01 0.005
0.015 0.015 0.005
0.02 0.015 0.005
0.02 0.01 0
0.025 0.01 0
0.02 0.015 0
0.025 0.015 0
0.02 0.01 0.005
0.025 0.01 0.005
0.02 0.015 0.005
0.025 0.015 0.005
0.025 0.01 0
0.03 0.01 0
0.025 0.015 0
0.03 0.015 0
0.025 0.01 0.005
0.03 0.01 0.005
0.025 0.015 0.005
0.03 0.015 0.005
0.03 0.01 0
0.035 0.01 0
0.03 0.015 0
0.035 0.015 0
0.03 0.01 0.005
0.035 0.01 0.005
0.03 0.015 0.005
0.035 0.015 0.005
0.035 0.01 0
0.04 0.01 0
0.035 0.015 0
0.04 0.015 0
0.035 0.01 0.005
0.04 0.01 0.005
0.035 0.015 0.005
0.04 0.015 0.005
0 0.015 0
0.005 0.015 0
0 0.02 0
0.005 0.02 0
0 0.015 0.005
0.005 0.015 0.005
0 0.02 0.005
0.005 0.02 0.005
0.005 0.015 0
0.01 0.015 0
0.005 0.02 0
0.01 0.02 0
0.005 0.015 0.005
0.01 0.015 0.005
0.005 0.02 0.005
0.01 0.02 0.005
0.01 0.015 0
0.015 0.015 0
0.01 0.02 0
0.015 0.02 0
0.01 0.015 0.005
0.015 0.015 0.005
0.01 0.02 0.005
0.015 0.02 0.005
0.015 0.015 0
0.02 0.015 0
0.015 0.02 0
0.02 0.02 0
0.015 0.015 0.005
0.02 0.015 0.005
0.015 0.02 0.005
0.02 0.02 0.005
0.02 0.015 0
0.025 0.015 0
0.02 0.02 0
0.025 0.02 0
0.02 0.015 0.005
0.025 0.015 0.005
0.02 0.02 0.005
0.025 0.02 0.005
0.025 0.015 0
0.03 0.015 0
0.025 0.02 0
0.03 0.02 0
0.025 0.015 0.005
0.03 0.015 0.005
0.025 0.02 0.005
0.03 0.02 0.005
0.03 0.015 0
0.035 0.015 0
0.03 0.02 0
0.035 0.02 0
0.03 0.015 0.005
0.035 0.015 0.005
0.03 0.02 0.005
0.035 0.02 0.005
0.035 0.015 0
0.04 0.015 0
0.035 0.02 0
0.04 0.02 0
0.035 0.015 0.005
0.04 0.015 0.005
0.035 0.02 0.005
0.04 0.02 0.005
0 0.02 0
0.005 0.02 0
0 0.025 0
0.005 0.025 0
0 0.02 0.005
0.005 0.02 0.005
0 0.025 0.005
0.005 0.025 0.005
0.005 0.02 0
0.01 0.02 0
0.005 0.025 0
0.01 0.025 0
0.005 0.02 0.005
0.01 0.02 0.005
0.005 0.025 0.005
0.01 0.025 0.005
0.01 0.02 0
0.015 0.02 0
0.01 0.025 0
0.015 0.025 0
0.01 0.02 0.005
0.015 0.02 0.005
0.01 0.025 0.005
0.015 0.025 0.005
0.015 0.02 0
0.02 0.02 0
0.015 0.025 0
0.02 0.025 0
0.015 0.02 0.005
0.02 0.02 0.005
0.015 0.025 0.005
0.02 0.025 0.005
0.02 0.02 0
0.025 0.02 0
0.02 0.025 0
0.025 0.025 0
0.02 0.02 0.005
0.025 0.02 0.005
0.02 0.025 0.005
0.025 0.025 0.005
0.025 0.02 0
0.03 0.02 0
0.025 0.025 0
0.03 0.025 0
0.025 0.02 0.005
0.03 0.02 0.005
0.025 0.025 0.005
0.03 0.025 0.005
0.03 0.02 0
0.035 0.02 0
0.03 0.025 0
0.035 0.025 0
0.03 0.02 0.005
0.035 0.02 0.005
0.03 0.025 0.005
0.035 0.025 0.005
0.035 0.02 0
0.04 0.02 0
0.035 0.025 0
0.04 0.025 0
0.035 0.02 0.005
0.04 0.02 0.005
0.035 0.025 0.005
0.04 0.025 0.005
0 0.025 0
0.005 0.025 0
0 0.03 0
0.005 0.03 0
0 0.025 0.005
0.005 0.025 0.005
0 0.03 0.005
0.005 0.03 0.005
0.005 0.025 0
0.01 0.025 0
0.005 0.03 0
0.01 0.03 0
0.005 0.025 0.005
0.01 0.025 0.005
0.005 0.03 0.005
0.01 0.03 0.005
0.01 0.025 0
0.015 0.025 0
0.01 0.03 0
0.015 0.03 0
0.01 0.025 0.005
0.015 0.025 0.005
0.01 0.03 0.005
0.015 0.03 0.005
0.015 0.025 0
0.02 0.025 0
0.015 0.03 0
0.02 0.03 0
0.015 0.025 0.005
0.02 0.025 0.005
0.015 0.03 0.005
0.02 0.03 0.005
0.02 0.025 0
0.025 0.025 0
0.02 0.03 0
0.025 0.03 0
0.02 0.025 0.005
0.025 0.025 0.005
0.02 0.03 0.005
0.025 0.03 0.005
0.025 0.025 0
0.03 0.025 0
0.025 0.03 0
0.03 0.03 0
0.025 0.025 0.005
0.03 0.025 0.005
0.025 0.03 0.005
0.03 0.03 0.005
0.03 0.025 0
0.035 0.025 0
0.03 0.03 0
0.035 0.03 0
0.03 0.025 0.005
0.035 0.025 0.005
0.03 0.03 0.005
0.035 0.03 0.005
0.035 0.025 0
0.04 0.025 0
0.035 0.03 0
0.04 0.03 0
0.035 0.025 0.005
0.04 0.025 0.005
0.035 0.03 0.005
0.04 0.03 0.005
0 0.03 0
0.005 0.03 0
0 0.035 0
0.005 0.035 0
0 0.03 0.005
0.005 0.03 0.005
0 0.035 0.005
0.005 0.035 0.005
0.005 0.03 0
0.01 0.03 0
0.005 0.035 0
0.01 0.035 0
0.005 0.03 0.005
0.01 0.03 0.005
0.005 0.035 0.005
0.01 0.035 0.005
0.01 0.03 0
0.015 0.03 0
0.01 0.035 0
0.015 0.035 0
0.01 0.03 0.005
0.015 0.03 0.005
0.01 0.035 0.005
0.015 0.035 0.005
0.015 0.03 0
0.02 0.03 0
0.015 0.035 0
0.02 0.035 0
0.015 0.03 0.005
0.02 0.03 0.005
0.015 0.035 0.005
0.02 0.035 0.005
0.02 0.03 0
0.025 0.03 0
0.02 0.035 0
0.025 0.035 0
0.02 0.03 0.005
0.025 0.03 0.005
0.02 0.035 0.005
0.025 0.035 0.005
0.025 0.03 0
0.03 0.03 0
0.025 0.035 0
0.03 0.035 0
0.025 0.03 0.005
0.03 0.03 0.005
0.025 0.035 0.005
0.03 0.035 0.005
0.03 0.03 0
0.035 0.03 0
0.03 0.035 0
0.035 0.035 0
0.03 0.03 0.005
0.035 0.03 0.005
0.03 0.035 0.005
0.035 0.035 0.005
0.035 0.03 0
0.04 0.03 0
0.035 0.035 0
0.04 0.035 0
0.035 0.03 0.005
0.04 0.03 0.005
0.035 0.035 0.005
0.04 0.035 0.005
0 0.035 0
0.005 0.035 0
0 0.04 0
0.005 0.04 0
0 0.035 0.005
0.005 0.035 0.005
0 0.04 0.005
0.005 0.04 0.005
0.005 0.035 0
0.01 0.035 0
0.005 0.04 0
0.01 0.04 0
0.005 0.035 0.005
0.01 0.035 0.005
0.005 0.04 0.005
0.01 0.04 0.005
0.01 0.035 0
0.015 0.035 0
0.01 0.04 0
0.015 0.04 0
0.01 0.035 0.005
0.015 0.035 0.005
0.01 0.04 0.005
0.015 0.04 0.005
0.015 0.035 0
0.02 0.035 0
0.015 0.04 0
0.02 0.04 0
0.015 0.035 0.005
0.02 0.035 0.005
0.015 0.04 0.005
0.02 0.04 0.005
0.02 0.035 0
0.025 0.035 0
0.02 0.04 0
0.025 0.04 0
0.02 0.035 0.005
0.025 0.035 0.005
0.02 0.04 0.005
0.025 0.04 0.005
0.025 0.035 0
0.03 0.035 0
0.025 0.04 0
0.03 0.04 0
0.025 0.035 0.005
0.03 0.035 0.005
0.025 0.04 0.005
0.03 0.04 0.005
0.03 0.035 0
0.035 0.035 0
0.03 0.04 0
0.035 0.04 0
0.03 0.035 0.005
0.035 0.035 0.005
0.03 0.04 0.005
0.035 0.04 0.005
0.035 0.035 0
0.04 0.035 0
0.035 0.04 0
0.04 0.04 0
0.035 0.035 0.005
0.04 0.035 0.005
0.035 0.04 0.005
0.04 0.04 0.005
0 0.04 0
0.005 0.04 0
0 0.045 0
0.005 0.045 0
0 0.04 0.005
0.005 0.04 0.005
0 0.045 0.005
0.005 0.045 0.005
0.005 0.04 0
0.01 0.04 0
0.005 0.045 0
0.01 0.045 0
0.005 0.04 0.005
0.01 0.04 0.005
0.005 0.045 0.005
0.01 0.045 0.005
0.01 0.04 0
0.015 0.04 0
0.01 0.045 0
0.015 0.045 0
0.01 0.04 0.005
0.015 0.04 0.005
0.01 0.045 0.005
0.015 0.045 0.005
0.015 0.04 0
0.02 0.04 0
0.015 0.045 0
0.02 0.045 0
0.015 0.04 0.005
0.02 0.04 0.005
0.015 0.045 0.005
0.02 0.045 0.005
0.02 0.04 0
0.025 0.04 0
0.02 0.045 0
0.025 0.045 0
0.02 0.04 0.005
0.025 0.04 0.005
0.02 0.045 0.005
0.025 0.045 0.005
0.025 0.04 0
0.03 0.04 0
0.025 0.045 0
0.03 0.045 0
0.025 0.04 0.005
0.03 0.04 0.005
0.025 0.045 0.005
0.03 0.045 0.005
0.03 0.04 0
0.035 0.04 0
0.03 0.045 0
0.035 0.045 0
0.03 0.04 0.005
0.035 0.04 0.005
0.03 0.045 0.005
0.035 0.045 0.005
0.035 0.04 0
0.04 0.04 0
0.035 0.045 0
0.04 0.045 0
0.035 0.04 0.005
0.04 0.04 0.005
0.035 0.045 0.005
0.04 0.045 0.005
0 0.045 0
0.005 0.045 0
0 0.05 0
0.005 0.05 0
0 0.045 0.005
0.005 0.045 0.005
0 0.05 0.005
0.005 0.05 0.005
0.005 0.045 0
0.01 0.045 0
0.005 0.05 0
0.01 0.05 0
0.005 0.045 0.005
0.01 0.045 0.005
0.005 0.05 0.005
0.01 0.05 0.005
0.01 0.045 0
0.015 0.045 0
0.01 0.05 0
0.015 0.05 0
0.01 0.045 0.005
0.015 0.045 0.005
0.01 0.05 0.005
0.015 0.05 0.005
0.015 0.045 0
0.02 0.045 0
0.015 0.05 0
0.02 0.05 0
0.015 0.045 0.005
0.02 0.045 0.005
0.015 0.05 0.005
0.02 0.05 0.005
0.02 0.045 0
0.025 0.045 0
0.02 0.05 0
0.025 0.05 0
0.02 0.045 0.005
0.025 0.045 0.005
0.02 0.05 0.005
0.025 0.05 0.005
0.025 0.045 0
0.03 0.045 0
0.025 0.05 0
0.03 0.05 0
0.025 0.045 0.005
0.03 0.045 0.005
0.025 0.05 0.005
0.03 0.05 0.005
0.03 0.045 0
0.035 0.045 0
0.03 0.05 0
0.035 0.05 0
0.03 0.045 0.005
0.035 0.045 0.005
0.03 0.05 0.005
0.035 0.05 0.005
0.035 0.045 0
0.04 0.045 0
0.035 0.05 0
0.04 0.05 0
0.035 0.045 0.005
0.04 0.045 0.005
0.035 0.05 0.005
0.04 0.05 0.005
0 0.05 0
0.005 0.05 0
0 0.055 0
0.005 0.055 0
0 0.05 0.005
0.005 0.05 0.005
0 0.055 0.005
0.005 0.055 0.005
0.005 0.05 0
0.01 0.05 0
0.005 0.055 0
0.01 0.055 0
0.005 0.05 0.005
0.01 0.05 0.005
0.005 0.055 0.005
0.01 0.055 0.005
0.01 0.05 0
0.015 0.05 0
0.01 0.055 0
0.015 0.055 0
0.01 0.05 0.005
0.015 0.05 0.005
0.01 0.055 0.005
0.015 0.055 0.005
0.015 0.05 0
0.02 0.05 0
0.015 0.055 0
0.02 0.055 0
0.015 0.05 0.005
0.02 0.05 0.005
0.015 0.055 0.005
[...]
POINT_DATA 4096
SCALARS D double 1
LOOKUP_TABLE default
300 302.687 300.5 302.841 300.5 302.778 301 302.953 302.687 304.551 302.841 304.634 302.778 304.606 302.953 304.689 304.551 306.091 304.634 306.161 304.606 306.126 304.689 306.19 306.091 307.438 306.161 307.499 306.126 307.455 306.19 307.518 307.438 308.603 307.499 308.67 307.455 308.631 307.518 308.696 308.603 309.57 308.67 309.656 308.631 309.626 308.696 309.706 309.57 310.199 309.656 310.348 309.626 310.285 309.706 310.468 310.199 310 310.348 310.517 310.285 310.517 310.468 311.033 300.5 302.841 301 303.155 301 302.953 301.5 303.276 302.841 304.634 303.155 304.863 302.953 304.689 303.276 304.919 304.634 306.161 304.863 306.35 304.689 306.19 304.919 306.377 306.161 307.499 306.35 307.676 306.19 307.518 306.377 307.695 307.499 308.67 307.676 308.859 307.518 308.696 307.695 308.886 308.67 309.656 308.859 309.89 308.696 309.706 308.886 309.938 309.656 310.348 309.89 310.683 309.706 310.468 309.938 310.804 310.348 310.517 310.683 311.033 310.468 311.033 310.804 311.55 301 303.155 301.5 303.558 301.5 303.276 302 303.678 303.155 304.863 303.558 305.187 303.276 304.919 303.678 305.242 304.863 306.35 305.187 306.633 304.919 306.377 305.242 306.661 306.35 307.676 306.633 307.948 306.377 307.695 306.661 307.967 307.676 308.859 307.948 309.145 307.695 308.886 307.967 309.172 308.859 309.89 309.145 310.22 308.886 309.938 309.172 310.267 309.89 310.683 310.22 311.092 309.938 310.804 310.267 311.216 310.683 311.033 311.092 311.55 310.804 311.55 311.216 312.067 301.5 303.558 302 303.992 302 303.678 302.5 304.112 303.558 305.187 303.992 305.57 303.678 305.242 304.112 305.625 305.187 306.633 305.57 306.985 305.242 306.661 305.625 307.013 306.633 307.948 306.985 308.291 306.661 307.967 307.013 308.309 307.948 309.145 308.291 309.5 307.967 309.172 308.309 309.527 309.145 310.22 309.5 310.61 309.172 310.267 309.527 310.657 310.22 311.092 310.61 311.537 310.267 311.216 310.657 311.662 311.092 311.55 311.537 312.067 311.216 312.067 311.662 312.583 302 303.992 302.5 304.449 302.5 304.112 303 304.569 303.992 305.57 304.449 305.991 304.112 305.625 304.569 306.046 305.57 306.985 305.991 307.383 305.625 307.013 306.046 307.411 306.985 308.291 307.383 308.682 307.013 308.309 307.411 308.701 308.291 309.5 308.682 309.902 308.309 309.527 308.701 309.929 309.5 310.61 309.902 311.038 309.527 310.657 309.929 311.085 310.61 311.537 311.038 312.005 310.657 311.662 311.085 312.131 311.537 312.067 312.005 312.583 311.662 312.583 312.131 313.1 302.5 304.449 303 304.918 303 304.569 303.5 305.038 304.449 305.991 304.918 306.435 304.569 306.046 305.038 306.49 305.991 307.383 306.435 307.811 306.046 307.411 306.49 307.838 307.383 308.682 307.811 309.106 307.411 308.701 307.838 309.124 308.682 309.902 309.106 310.333 308.701 309.929 309.124 310.36 309.902 311.038 310.333 311.489 309.929 311.085 310.36 311.536 311.038 312.005 311.489 312.486 311.085 312.131 311.536 312.612 312.005 312.583 312.486 313.1 312.131 313.1 312.612 313.617 303 304.918 303.5 305.395 303.5 305.038 304 305.515 304.918 306.435 305.395 306.892 305.038 306.49 305.515 306.947 306.435 307.811 306.892 308.257 306.49 307.838 306.947 308.284 307.811 309.106 308.257 309.548 307.838 309.124 308.284 309.567 309.106 310.333 309.548 310.783 309.124 310.36 309.567 310.809 310.333 311.489 310.783 311.955 310.36 311.536 310.809 312.001 311.489 312.486 311.955 312.974 311.536 312.612 312.001 313.101 312.486 313.1 312.974 313.617 312.612 313.617 313.101 314.133 303.5 305.395 304 305.875 304 305.515 304.5 305.996 305.395 306.892 305.875 307.356 305.515 306.947 305.996 307.411 306.892 308.257 307.356 308.71 306.947 308.284 307.411 308.737 308.257 309.548 308.71 309.999 308.284 309.567 308.737 310.018 309.548 310.783 309.999 311.24 309.567 310.809 310.018 311.267 310.783 311.955 311.24 312.426 310.809 312.001 311.267 312.473 311.955 312.974 312.426 313.467 312.001 313.101 312.473 313.594 312.974 313.617 313.467 314.133 313.101 314.133 313.594 314.65 304 305.875 304.5 306.355 304.5 305.996 305 306.476 305.875 307.356 306.355 307.82 305.996 307.411 306.476 307.875 307.356 308.71 307.82 309.164 307.411 308.737 307.875 309.191 308.71 309.999 309.164 310.451 308.737 310.018 309.191 310.469 309.999 311.24 310.451 311.698 310.018 311.267 310.469 311.724 311.24 312.426 311.698 312.898 311.267 312.473 311.724 312.944 312.426 313.467 312.898 313.959 312.473 313.594 312.944 314.087 313.467 314.133 313.959 314.65 313.594 314.65 314.087 315.167 304.5 306.355 305 306.832 305 306.476 305.5 306.953 306.355 307.82 306.832 308.278 306.476 307.875 306.953 308.333 307.82 309.164 308.278 309.609 307.875 309.191 308.333 309.636 309.164 310.451 309.609 310.893 309.191 310.469 309.636 310.912 310.451 311.698 310.893 312.147 310.469 311.724 310.912 312.174 311.698 312.898 312.147 313.364 311.724 312.944 312.174 313.41 312.898 313.959 313.364 314.447 312.944 314.087 313.41 314.576 313.959 314.65 314.447 315.167 314.087 315.167 314.576 315.683 305 306.832 305.5 307.302 305.5 306.953 306 307.422 306.832 308.278 307.302 308.722 306.953 308.333 307.422 308.777 308.278 309.609 308.722 310.037 308.333 309.636 308.777 310.064 309.609 310.893 310.037 311.317 309.636 310.912 310.064 311.335 310.893 312.147 311.317 312.578 310.912 312.174 311.335 312.605 312.147 313.364 312.578 313.815 312.174 313.41 312.605 313.861 313.364 314.447 313.815 314.928 313.41 314.576 313.861 315.057 314.447 315.167 314.928 315.683 314.576 315.683 315.057 316.2 305.5 307.302 306 307.759 306 307.422 306.5 307.879 307.302 308.722 307.759 309.143 307.422 308.777 307.879 309.197 308.722 310.037 309.143 310.435 308.777 310.064 309.197 310.462 310.037 311.317 310.435 311.708 310.064 311.335 310.462 311.727 311.317 312.578 311.708 312.98 311.335 312.605 311.727 313.007 312.578 313.815 312.98 314.243 312.605 313.861 313.007 314.289 313.815 314.928 314.243 315.396 313.861 315.057 314.289 315.526 314.928 315.683 315.396 316.2 315.057 316.2 315.526 316.717 306 307.759 306.5 308.192 306.5 307.879 307 308.314 307.759 309.143 308.192 309.526 307.879 309.197 308.314 309.581 309.143 310.435 309.526 310.788 309.197 310.462 309.581 310.814 310.435 311.708 310.788 312.051 310.462 311.727 310.814 312.069 311.708 312.98 312.051 313.336 311.727 313.007 312.069 313.362 312.98 314.243 313.336 314.633 313.007 314.289 313.362 314.678 314.243 315.396 314.633 315.842 314.289 315.526 314.678 315.973 315.396 316.2 315.842 316.717 315.526 316.717 315.973 317.233 306.5 308.192 307 308.595 307 308.314 307.5 308.715 308.192 309.526 308.595 309.85 308.314 309.581 308.715 309.904 309.526 310.788 309.85 311.071 309.581 310.814 309.904 311.098 310.788 312.051 311.071 312.324 310.814 312.069 311.098 312.342 312.051 313.336 312.324 313.622 312.069 313.362 312.342 313.649 313.336 314.633 313.622 314.964 313.362 314.678 313.649 315.008 314.633 315.842 314.964 316.251 314.678 315.973 315.008 316.385 315.842 316.717 316.251 317.233 315.973 317.233 316.385 317.75 307 308.595 307.5 308.909 307.5 308.715 308 309.039 308.595 309.85 308.909 310.079 308.715 309.904 309.039 310.134 309.85 311.071 310.079 311.26 309.904 311.098 310.134 311.285 311.071 312.324 311.26 312.501 311.098 312.342 311.285 312.519 312.324 313.622 312.501 313.812 312.342 313.649 312.519 313.839 313.622 314.964 313.812 315.2 313.649 315.008 313.839 315.241 314.964 316.251 315.2 316.586 315.008 316.385 315.241 316.722 316.251 317.233 316.586 317.75 316.385 317.75 316.722 318.267 307.5 308.909 308 309.064 308 309.039 308.5 309.213 308.909 310.079 309.064 310.161 309.039 310.134 309.213 310.217 310.079 311.26 310.161 311.331 310.134 311.285 310.217 311.35 311.26 312.501 311.331 312.56 311.285 312.519 311.35 312.582 312.501 313.812 312.56 313.88 312.519 313.839 312.582 313.905 313.812 315.2 313.88 315.285 313.839 315.241 313.905 315.326 315.2 316.586 315.285 316.75 315.241 316.722 315.326 316.9 316.586 317.75 316.75 318.267 316.722 318.267 316.9 318.783 300.5 302.778 301 302.953 301 303.024 301.5 303.214 302.778 304.606 302.953 304.689 303.024 304.746 303.214 304.817 304.606 306.126 304.689 306.19 304.746 306.186 304.817 306.252 306.126 307.455 306.19 307.518 306.186 307.503 306.252 307.566 307.455 308.631 307.518 308.696 307.503 308.697 307.566 308.762 308.631 309.626 308.696 309.706 308.697 309.742 308.762 309.823 309.626 310.285 309.706 310.468 309.742 310.585 309.823 310.769 310.285 310.517 310.468 311.033 310.585 311.033 310.769 311.55 301 302.953 301.5 303.276 301.5 303.214 302 303.545 302.953 304.689 303.276 304.919 303.214 304.817 303.545 305.044 304.689 306.19 304.919 306.377 304.817 306.252 305.044 306.439 306.19 307.518 306.377 307.695 306.252 307.566 306.439 307.743 307.518 308.696 307.695 308.886 307.566 308.762 307.743 308.951 308.696 309.706 308.886 309.938 308.762 309.823 308.951 310.055 309.706 310.468 309.938 310.804 309.823 310.769 310.055 311.105 310.468 311.033 310.804 311.55 310.769 311.55 311.105 312.067 301.5 303.276 302 303.678 302 303.545 302.5 303.943 303.276 304.919 303.678 305.242 303.545 305.044 303.943 305.367 304.919 306.377 305.242 306.661 305.044 306.439 305.367 306.722 306.377 307.695 306.661 307.967 306.439 307.743 306.722 308.015 307.695 308.886 307.967 309.172 307.743 308.951 308.015 309.236 308.886 309.938 309.172 310.267 308.951 310.055 309.236 310.384 309.938 310.804 310.267 311.216 310.055 311.105 310.384 311.517 310.804 311.55 311.216 312.067 311.105 312.067 311.517 312.583 302 303.678 302.5 304.112 302.5 303.943 303 304.379 303.678 305.242 304.112 305.625 303.943 305.367 304.379 305.75 305.242 306.661 305.625 307.013 305.367 306.722 305.75 307.074 306.661 307.967 307.013 308.309 306.722 308.015 307.074 308.357 307.967 309.172 308.309 309.527 308.015 309.236 308.357 309.591 309.172 310.267 309.527 310.657 309.236 310.384 309.591 310.773 310.267 311.216 310.657 311.662 310.384 311.517 310.773 311.963 311.216 312.067 311.662 312.583 311.517 312.583 311.963 313.1 302.5 304.112 303 304.569 303 304.379 303.5 304.835 304.112 305.625 304.569 306.046 304.379 305.75 304.835 306.17 305.625 307.013 306.046 307.411 305.75 307.074 306.17 307.471 307.013 308.309 307.411 308.701 307.074 308.357 307.471 308.748 308.309 309.527 308.701 309.929 308.357 309.591 308.748 309.992 309.527 310.657 309.929 311.085 309.591 310.773 309.992 311.201 310.657 311.662 311.085 312.131 310.773 311.963 311.201 312.432 311.662 312.583 312.131 313.1 311.963 313.1 312.432 313.617 303 304.569 303.5 305.038 303.5 304.835 304 305.305 304.569 306.046 305.038 306.49 304.835 306.17 305.305 306.614 306.046 307.411 306.49 307.838 306.17 307.471 306.614 307.899 307.411 308.701 307.838 309.124 307.471 308.748 307.899 309.171 308.701 309.929 309.124 310.36 308.748 309.992 309.171 310.423 309.929 311.085 310.36 311.536 309.992 311.201 310.423 311.652 311.085 312.131 311.536 312.612 311.201 312.432 311.652 312.913 312.131 313.1 312.612 313.617 312.432 313.617 312.913 314.133 303.5 305.038 304 305.515 304 305.305 304.5 305.781 305.038 306.49 305.515 306.947 305.305 306.614 305.781 307.071 306.49 307.838 306.947 308.284 306.614 307.899 307.071 308.344 307.838 309.124 308.284 309.567 307.899 309.171 308.344 309.613 309.124 310.36 309.567 310.809 309.171 310.423 309.613 310.873 310.36 311.536 310.809 312.001 310.423 311.652 310.873 312.117 311.536 312.612 312.001 313.101 311.652 312.913 312.117 313.402 312.612 313.617 313.101 314.133 312.913 314.133 313.402 314.65 304 305.515 304.5 305.996 304.5 305.781 305 306.262 305.515 306.947 305.996 307.411 305.781 307.071 306.262 307.535 306.947 308.284 307.411 308.737 307.071 308.344 307.535 308.798 308.284 309.567 308.737 310.018 308.344 309.613 308.798 310.064 309.567 310.809 310.018 311.267 309.613 310.873 310.064 311.33 310.809 312.001 311.267 312.473 310.873 312.117 311.33 312.588 312.001 313.101 312.473 313.594 312.117 313.402 312.588 313.895 313.101 314.133 313.594 314.65 313.402 314.65 313.895 315.167 304.5 305.996 305 306.476 305 306.262 305.5 306.742 305.996 307.411 306.476 307.875 306.262 307.535 306.742 307.999 307.411 308.737 307.875 309.191 307.535 308.798 307.999 309.251 308.737 310.018 309.191 310.469 308.798 310.064 309.251 310.516 310.018 311.267 310.469 311.724 310.064 311.33 310.516 311.787 311.267 312.473 311.724 312.944 311.33 312.588 311.787 313.06 312.473 313.594 312.944 314.087 312.588 313.895 313.06 314.387 313.594 314.65 314.087 315.167 313.895 315.167 314.387 315.683 305 306.476 305.5 306.953 305.5 306.742 306 307.219 306.476 307.875 306.953 308.333 306.742 307.999 307.219 308.456 307.875 309.191 308.333 309.636 307.999 309.251 308.456 309.696 309.191 310.469 309.636 310.912 309.251 310.516 309.696 310.958 310.469 311.724 310.912 312.174 310.516 311.787 310.958 312.236 311.724 312.944 312.174 313.41 311.787 313.06 312.236 313.525 312.944 314.087 313.41 314.576 313.06 314.387 313.525 314.877 314.087 315.167 314.576 315.683 314.387 315.683 314.877 316.2 305.5 306.953 306 307.422 306 307.219 306.5 307.688 306.953 308.333 307.422 308.777 307.219 308.456 307.688 308.9 308.333 309.636 308.777 310.064 308.456 309.696 308.9 310.124 309.636 310.912 310.064 311.335 309.696 310.958 310.124 311.381 310.912 312.174 311.335 312.605 310.958 312.236 311.381 312.668 312.174 313.41 312.605 313.861 312.236 313.525 312.668 313.976 313.41 314.576 313.861 315.057 313.525 314.877 313.976 315.358 314.576 315.683 315.057 316.2 314.877 316.2 315.358 316.717 306 307.422 306.5 307.879 306.5 307.688 307 308.145 307.422 308.777 307.879 309.197 307.688 308.9 308.145 309.32 308.777 310.064 309.197 310.462 308.9 310.124 309.32 310.522 310.064 311.335 310.462 311.727 310.124 311.381 310.522 311.772 311.335 312.605 311.727 313.007 311.381 312.668 311.772 313.069 312.605 313.861 313.007 314.289 312.668 313.976 313.069 314.404 313.861 315.057 314.289 315.526 313.976 315.358 314.404 315.827 315.057 316.2 315.526 316.717 315.358 316.717 315.827 317.233 306.5 307.879 307 308.314 307 308.145 307.5 308.58 307.879 309.197 308.314 309.581 308.145 309.32 308.58 309.703 309.197 310.462 309.581 310.814 309.32 310.522 309.703 310.873 310.462 311.727 310.814 312.069 310.522 311.772 310.873 312.115 311.727 313.007 312.069 313.362 311.772 313.069 312.115 313.424 313.007 314.289 313.362 314.678 313.069 314.404 313.424 314.794 314.289 315.526 314.678 315.973 314.404 315.827 314.794 316.274 315.526 316.717 315.973 317.233 315.827 317.233 316.274 317.75 307 308.314 307.5 308.715 307.5 308.58 308 308.979 308.314 309.581 308.715 309.904 308.58 309.703 308.979 310.026 309.581 310.814 309.904 311.098 309.703 310.873 310.026 311.156 310.814 312.069 311.098 312.342 310.873 312.115 311.156 312.387 312.069 313.362 312.342 313.649 312.115 313.424 312.387 313.71 313.362 314.678 313.649 315.008 313.424 314.794 313.71 315.123 314.678 315.973 315.008 316.385 314.794 316.274 315.123 316.685 315.973 317.233 316.385 317.75 316.274 317.75 316.685 318.267 307.5 308.715 308 309.039 308 308.979 308.5 309.309 308.715 309.904 309.039 310.134 308.979 310.026 309.309 310.253 309.904 311.098 310.134 311.285 310.026 311.156 310.253 311.344 311.098 312.342 311.285 312.519 311.156 312.387 311.344 312.564 312.342 313.649 312.519 313.839 312.387 313.71 312.564 313.9 313.649 315.008 313.839 315.241 313.71 315.123 313.9 315.355 315.008 316.385 315.241 316.722 315.123 316.685 315.355 317.023 316.385 317.75 316.722 318.267 316.685 318.267 317.023 318.783 308 309.039 308.5 309.213 308.5 309.309 309 309.501 309.039 310.134 309.213 310.217 309.309 310.253 309.501 310.323 310.134 311.285 310.217 311.35 310.253 311.344 310.323 311.41 311.285 312.519 311.35 312.582 311.344 312.564 311.41 312.627 312.519 313.839 312.582 313.905 312.564 313.9 312.627 313.965 313.839 315.241 313.905 315.326 313.9 315.355 313.965 315.438 315.241 316.722 315.326 316.9 315.355 317.023 315.438 317.204 316.722 318.267 316.9 318.783 317.023 318.783 317.204 319.3 301 303.024 301.5 303.214 301.5 303.341 302 303.503 303.024 304.746 303.214 304.817 303.341 304.845 303.503 304.929 304.746 306.186 304.817 306.252 304.845 306.247 304.929 306.312 306.186 307.503 306.252 307.566 306.247 307.549 306.312 307.61 307.503 308.697 307.566 308.762 307.549 308.753 307.61 308.82 308.697 309.742 308.762 309.823 308.753 309.865 308.82 309.951 309.742 310.585 309.823 310.769 309.865 310.863 309.951 311.028 310.585 311.033 310.769 311.55 310.863 311.55 311.028 312.067 301.5 303.214 302 303.545 302 303.503 302.5 303.827 303.214 304.817 303.545 305.044 303.503 304.929 303.827 305.157 304.817 306.252 305.044 306.439 304.929 306.312 305.157 306.5 306.252 307.566 306.439 307.743 306.312 307.61 306.5 307.787 307.566 308.762 307.743 308.951 307.61 308.82 307.787 309.01 308.762 309.823 308.951 310.055 308.82 309.951 309.01 310.186 309.823 310.769 310.055 311.105 309.951 311.028 310.186 311.358 310.769 311.55 311.105 312.067 311.028 312.067 311.358 312.583 302 303.545 302.5 303.943 302.5 303.827 303 304.228 303.545 305.044 303.943 305.367 303.827 305.157 304.228 305.481 305.044 306.439 305.367 306.722 305.157 306.5 305.481 306.783 306.439 307.743 306.722 308.015 306.5 307.787 306.783 308.06 307.743 308.951 308.015 309.236 307.787 309.01 308.06 309.296 308.951 310.055 309.236 310.384 309.01 310.186 309.296 310.515 310.055 311.105 310.384 311.517 310.186 311.358 310.515 311.77 311.105 312.067 311.517 312.583 311.358 312.583 311.77 313.1 302.5 303.943 303 304.379 303 304.228 303.5 304.663 303.943 305.367 304.379 305.75 304.228 305.481 304.663 305.864 305.367 306.722 305.75 307.074 305.481 306.783 305.864 307.135 306.722 308.015 307.074 308.357 306.783 308.06 307.135 308.402 308.015 309.236 308.357 309.591 308.06 309.296 308.402 309.651 309.236 310.384 309.591 310.773 309.296 310.515 309.651 310.905 310.384 311.517 310.773 311.963 310.515 311.77 310.905 312.215 311.517 312.583 311.963 313.1 311.77 313.1 312.215 313.617 303 304.379 303.5 304.835 303.5 304.663 304 305.12 304.379 305.75 304.835 306.17 304.663 305.864 305.12 306.285 305.75 307.074 306.17 307.471 305.864 307.135 306.285 307.533 307.074 308.357 307.471 308.748 307.135 308.402 307.533 308.794 308.357 309.591 308.748 309.992 308.402 309.651 308.794 310.053 309.591 310.773 309.992 311.201 309.651 310.905 310.053 311.333 310.773 311.963 311.201 312.432 310.905 312.215 311.333 312.683 311.963 313.1 312.432 313.617 312.215 313.617 312.683 314.133 303.5 304.835 304 305.305 304 305.12 304.5 305.589 304.835 306.17 305.305 306.614 305.12 306.285 305.589 306.729 306.17 307.471 306.614 307.899 306.285 307.533 306.729 307.961 307.471 308.748 307.899 309.171 307.533 308.794 307.961 309.217 308.748 309.992 309.171 310.423 308.794 310.053 309.217 310.484 309.992 311.201 310.423 311.652 310.053 311.333 310.484 311.785 311.201 312.432 311.652 312.913 311.333 312.683 311.785 313.164 312.432 313.617 312.913 314.133 312.683 314.133 313.164 314.65 304 305.305 304.5 305.781 304.5 305.589 305 306.066 305.305 306.614 305.781 307.071 305.589 306.729 306.066 307.186 306.614 307.899 307.071 308.344 306.729 307.961 307.186 308.406 307.899 309.171 308.344 309.613 307.961 309.217 308.406 309.659 309.171 310.423 309.613 310.873 309.217 310.484 309.659 310.933 310.423 311.652 310.873 312.117 310.484 311.785 310.933 312.25 311.652 312.913 312.117 313.402 311.785 313.164 312.25 313.653 312.913 314.133 313.402 314.65 313.164 314.65 313.653 315.167 304.5 305.781 305 306.262 305 306.066 305.5 306.546 305.781 307.071 306.262 307.535 306.066 307.186 306.546 307.65 307.071 308.344 307.535 308.798 307.186 308.406 307.65 308.86 308.344 309.613 308.798 310.064 308.406 309.659 308.86 310.111 309.613 310.873 310.064 311.33 309.659 310.933 310.111 311.391 310.873 312.117 311.33 312.588 310.933 312.25 311.391 312.722 312.117 313.402 312.588 313.895 312.25 313.653 312.722 314.145 313.402 314.65 313.895 315.167 313.653 315.167 314.145 315.683 305 306.262 305.5 306.742 305.5 306.546 306 307.026 306.262 307.535 306.742 307.999 306.546 307.65 307.026 308.114 307.535 308.798 307.999 309.251 307.65 308.86 308.114 309.314 308.798 310.064 309.251 310.516 308.86 310.111 309.314 3