# vtk DataFile Version 3.0
#This file was generated by the deal.II library on 2018/12/19 at 20:15:48
ASCII
DATASET UNSTRUCTURED_GRID

POINTS 4096 double
0 0 0
0.125 0 0
0 0.125 0
0.125 0.125 0
0 0 0.125
0.125 0 0.125
0 0.125 0.125
0.125 0.125 0.125
0.125 0 0
0.25 0 0
0.125 0.125 0
0.25 0.125 0
0.125 0 0.125
0.25 0 0.125
0.125 0.125 0.125
0.25 0.125 0.125
0.25 0 0
0.375 0 0
0.25 0.125 0
0.375 0.125 0
0.25 0 0.125
0.375 0 0.125
0.25 0.125 0.125
0.375 0.125 0.125
0.375 0 0
0.5 0 0
0.375 0.125 0
0.5 0.125 0
0.375 0 0.125
0.5 0 0.125
0.375 0.125 0.125
0.5 0.125 0.125
0.5 0 0
0.625 0 0
0.5 0.125 0
0.625 0.125 0
0.5 0 0.125
0.625 0 0.125
0.5 0.125 0.125
0.625 0.125 0.125
0.625 0 0
0.75 0 0
0.625 0.125 0
0.75 0.125 0
0.625 0 0.125
0.75 0 0.125
0.625 0.125 0.125
0.75 0.125 0.125
0.75 0 0
0.875 0 0
0.75 0.125 0
0.875 0.125 0
0.75 0 0.125
0.875 0 0.125
0.75 0.125 0.125
0.875 0.125 0.125
0.875 0 0
1 0 0
0.875 0.125 0
1 0.125 0
0.875 0 0.125
1 0 0.125
0.875 0.125 0.125
1 0.125 0.125
0 0.125 0
0.125 0.125 0
0 0.25 0
0.125 0.25 0
0 0.125 0.125
0.125 0.125 0.125
0 0.25 0.125
0.125 0.25 0.125
0.125 0.125 0
0.25 0.125 0
0.125 0.25 0
0.25 0.25 0
0.125 0.125 0.125
0.25 0.125 0.125
0.125 0.25 0.125
0.25 0.25 0.125
0.25 0.125 0
0.375 0.125 0
0.25 0.25 0
0.375 0.25 0
0.25 0.125 0.125
0.375 0.125 0.125
0.25 0.25 0.125
0.375 0.25 0.125
0.375 0.125 0
0.5 0.125 0
0.375 0.25 0
0.5 0.25 0
0.375 0.125 0.125
0.5 0.125 0.125
0.375 0.25 0.125
0.5 0.25 0.125
0.5 0.125 0
0.625 0.125 0
0.5 0.25 0
0.625 0.25 0
0.5 0.125 0.125
0.625 0.125 0.125
0.5 0.25 0.125
0.625 0.25 0.125
0.625 0.125 0
0.75 0.125 0
0.625 0.25 0
0.75 0.25 0
0.625 0.125 0.125
0.75 0.125 0.125
0.625 0.25 0.125
0.75 0.25 0.125
0.75 0.125 0
0.875 0.125 0
0.75 0.25 0
0.875 0.25 0
0.75 0.125 0.125
0.875 0.125 0.125
0.75 0.25 0.125
0.875 0.25 0.125
0.875 0.125 0
1 0.125 0
0.875 0.25 0
1 0.25 0
0.875 0.125 0.125
1 0.125 0.125
0.875 0.25 0.125
1 0.25 0.125
0 0.25 0
0.125 0.25 0
0 0.375 0
0.125 0.375 0
0 0.25 0.125
0.125 0.25 0.125
0 0.375 0.125
0.125 0.375 0.125
0.125 0.25 0
0.25 0.25 0
0.125 0.375 0
0.25 0.375 0
0.125 0.25 0.125
0.25 0.25 0.125
0.125 0.375 0.125
0.25 0.375 0.125
0.25 0.25 0
0.375 0.25 0
0.25 0.375 0
0.375 0.375 0
0.25 0.25 0.125
0.375 0.25 0.125
0.25 0.375 0.125
0.375 0.375 0.125
0.375 0.25 0
0.5 0.25 0
0.375 0.375 0
0.5 0.375 0
0.375 0.25 0.125
0.5 0.25 0.125
0.375 0.375 0.125
0.5 0.375 0.125
0.5 0.25 0
0.625 0.25 0
0.5 0.375 0
0.625 0.375 0
0.5 0.25 0.125
0.625 0.25 0.125
0.5 0.375 0.125
0.625 0.375 0.125
0.625 0.25 0
0.75 0.25 0
0.625 0.375 0
0.75 0.375 0
0.625 0.25 0.125
0.75 0.25 0.125
0.625 0.375 0.125
0.75 0.375 0.125
0.75 0.25 0
0.875 0.25 0
0.75 0.375 0
0.875 0.375 0
0.75 0.25 0.125
0.875 0.25 0.125
0.75 0.375 0.125
0.875 0.375 0.125
0.875 0.25 0
1 0.25 0
0.875 0.375 0
1 0.375 0
0.875 0.25 0.125
1 0.25 0.125
0.875 0.375 0.125
1 0.375 0.125
0 0.375 0
0.125 0.375 0
0 0.5 0
0.125 0.5 0
0 0.375 0.125
0.125 0.375 0.125
0 0.5 0.125
0.125 0.5 0.125
0.125 0.375 0
0.25 0.375 0
0.125 0.5 0
0.25 0.5 0
0.125 0.375 0.125
0.25 0.375 0.125
0.125 0.5 0.125
0.25 0.5 0.125
0.25 0.375 0
0.375 0.375 0
0.25 0.5 0
0.375 0.5 0
0.25 0.375 0.125
0.375 0.375 0.125
0.25 0.5 0.125
0.375 0.5 0.125
0.375 0.375 0
0.5 0.375 0
0.375 0.5 0
0.5 0.5 0
0.375 0.375 0.125
0.5 0.375 0.125
0.375 0.5 0.125
0.5 0.5 0.125
0.5 0.375 0
0.625 0.375 0
0.5 0.5 0
0.625 0.5 0
0.5 0.375 0.125
0.625 0.375 0.125
0.5 0.5 0.125
0.625 0.5 0.125
0.625 0.375 0
0.75 0.375 0
0.625 0.5 0
0.75 0.5 0
0.625 0.375 0.125
0.75 0.375 0.125
0.625 0.5 0.125
0.75 0.5 0.125
0.75 0.375 0
0.875 0.375 0
0.75 0.5 0
0.875 0.5 0
0.75 0.375 0.125
0.875 0.375 0.125
0.75 0.5 0.125
0.875 0.5 0.125
0.875 0.375 0
1 0.375 0
0.875 0.5 0
1 0.5 0
0.875 0.375 0.125
1 0.375 0.125
0.875 0.5 0.125
1 0.5 0.125
0 0.5 0
0.125 0.5 0
0 0.625 0
0.125 0.625 0
0 0.5 0.125
0.125 0.5 0.125
0 0.625 0.125
0.125 0.625 0.125
0.125 0.5 0
0.25 0.5 0
0.125 0.625 0
0.25 0.625 0
0.125 0.5 0.125
0.25 0.5 0.125
0.125 0.625 0.125
0.25 0.625 0.125
0.25 0.5 0
0.375 0.5 0
0.25 0.625 0
0.375 0.625 0
0.25 0.5 0.125
0.375 0.5 0.125
0.25 0.625 0.125
0.375 0.625 0.125
0.375 0.5 0
0.5 0.5 0
0.375 0.625 0
0.5 0.625 0
0.375 0.5 0.125
0.5 0.5 0.125
0.375 0.625 0.125
0.5 0.625 0.125
0.5 0.5 0
0.625 0.5 0
0.5 0.625 0
0.625 0.625 0
0.5 0.5 0.125
0.625 0.5 0.125
0.5 0.625 0.125
0.625 0.625 0.125
0.625 0.5 0
0.75 0.5 0
0.625 0.625 0
0.75 0.625 0
0.625 0.5 0.125
0.75 0.5 0.125
0.625 0.625 0.125
0.75 0.625 0.125
0.75 0.5 0
0.875 0.5 0
0.75 0.625 0
0.875 0.625 0
0.75 0.5 0.125
0.875 0.5 0.125
0.75 0.625 0.125
0.875 0.625 0.125
0.875 0.5 0
1 0.5 0
0.875 0.625 0
1 0.625 0
0.875 0.5 0.125
1 0.5 0.125
0.875 0.625 0.125
1 0.625 0.125
0 0.625 0
0.125 0.625 0
0 0.75 0
0.125 0.75 0
0 0.625 0.125
0.125 0.625 0.125
0 0.75 0.125
0.125 0.75 0.125
0.125 0.625 0
0.25 0.625 0
0.125 0.75 0
0.25 0.75 0
0.125 0.625 0.125
0.25 0.625 0.125
0.125 0.75 0.125
0.25 0.75 0.125
0.25 0.625 0
0.375 0.625 0
0.25 0.75 0
0.375 0.75 0
0.25 0.625 0.125
0.375 0.625 0.125
0.25 0.75 0.125
0.375 0.75 0.125
0.375 0.625 0
0.5 0.625 0
0.375 0.75 0
0.5 0.75 0
0.375 0.625 0.125
0.5 0.625 0.125
0.375 0.75 0.125
0.5 0.75 0.125
0.5 0.625 0
0.625 0.625 0
0.5 0.75 0
0.625 0.75 0
0.5 0.625 0.125
0.625 0.625 0.125
0.5 0.75 0.125
0.625 0.75 0.125
0.625 0.625 0
0.75 0.625 0
0.625 0.75 0
0.75 0.75 0
0.625 0.625 0.125
0.75 0.625 0.125
0.625 0.75 0.125
0.75 0.75 0.125
0.75 0.625 0
0.875 0.625 0
0.75 0.75 0
0.875 0.75 0
0.75 0.625 0.125
0.875 0.625 0.125
0.75 0.75 0.125
0.875 0.75 0.125
0.875 0.625 0
1 0.625 0
0.875 0.75 0
1 0.75 0
0.875 0.625 0.125
1 0.625 0.125
0.875 0.75 0.125
1 0.75 0.125
0 0.75 0
0.125 0.75 0
0 0.875 0
0.125 0.875 0
0 0.75 0.125
0.125 0.75 0.125
0 0.875 0.125
0.125 0.875 0.125
0.125 0.75 0
0.25 0.75 0
0.125 0.875 0
0.25 0.875 0
0.125 0.75 0.125
0.25 0.75 0.125
0.125 0.875 0.125
0.25 0.875 0.125
0.25 0.75 0
0.375 0.75 0
0.25 0.875 0
0.375 0.875 0
0.25 0.75 0.125
0.375 0.75 0.125
0.25 0.875 0.125
0.375 0.875 0.125
0.375 0.75 0
0.5 0.75 0
0.375 0.875 0
0.5 0.875 0
0.375 0.75 0.125
0.5 0.75 0.125
0.375 0.875 0.125
0.5 0.875 0.125
0.5 0.75 0
0.625 0.75 0
0.5 0.875 0
0.625 0.875 0
0.5 0.75 0.125
0.625 0.75 0.125
0.5 0.875 0.125
0.625 0.875 0.125
0.625 0.75 0
0.75 0.75 0
0.625 0.875 0
0.75 0.875 0
0.625 0.75 0.125
0.75 0.75 0.125
0.625 0.875 0.125
0.75 0.875 0.125
0.75 0.75 0
0.875 0.75 0
0.75 0.875 0
0.875 0.875 0
0.75 0.75 0.125
0.875 0.75 0.125
0.75 0.875 0.125
0.875 0.875 0.125
0.875 0.75 0
1 0.75 0
0.875 0.875 0
1 0.875 0
0.875 0.75 0.125
1 0.75 0.125
0.875 0.875 0.125
1 0.875 0.125
0 0.875 0
0.125 0.875 0
0 1 0
0.125 1 0
0 0.875 0.125
0.125 0.875 0.125
0 1 0.125
0.125 1 0.125
0.125 0.875 0
0.25 0.875 0
0.125 1 0
0.25 1 0
0.125 0.875 0.125
0.25 0.875 0.125
0.125 1 0.125
0.25 1 0.125
0.25 0.875 0
0.375 0.875 0
0.25 1 0
0.375 1 0
0.25 0.875 0.125
0.375 0.875 0.125
0.25 1 0.125
0.375 1 0.125
0.375 0.875 0
0.5 0.875 0
0.375 1 0
0.5 1 0
0.375 0.875 0.125
0.5 0.875 0.125
0.375 1 0.125
0.5 1 0.125
0.5 0.875 0
0.625 0.875 0
0.5 1 0
0.625 1 0
0.5 0.875 0.125
0.625 0.875 0.125
0.5 1 0.125
0.625 1 0.125
0.625 0.875 0
0.75 0.875 0
0.625 1 0
0.75 1 0
0.625 0.875 0.125
0.75 0.875 0.125
0.625 1 0.125
0.75 1 0.125
0.75 0.875 0
0.875 0.875 0
0.75 1 0
0.875 1 0
0.75 0.875 0.125
0.875 0.875 0.125
0.75 1 0.125
0.875 1 0.125
0.875 0.875 0
1 0.875 0
0.875 1 0
1 1 0
0.875 0.875 0.125
1 0.875 0.125
0.875 1 0.125
1 1 0.125
0 0 0.125
0.125 0 0.125
0 0.125 0.125
0.125 0.125 0.125
0 0 0.25
0.125 0 0.25
0 0.125 0.25
0.125 0.125 0.25
0.125 0 0.125
0.25 0 0.125
0.125 0.125 0.125
0.25 0.125 0.125
0.125 0 0.25
0.25 0 0.25
0.125 0.125 0.25
0.25 0.125 0.25
0.25 0 0.125
0.375 0 0.125
0.25 0.125 0.125
0.375 0.125 0.125
0.25 0 0.25
0.375 0 0.25
0.25 0.125 0.25
0.375 0.125 0.25
0.375 0 0.125
0.5 0 0.125
0.375 0.125 0.125
0.5 0.125 0.125
0.375 0 0.25
0.5 0 0.25
0.375 0.125 0.25
0.5 0.125 0.25
0.5 0 0.125
0.625 0 0.125
0.5 0.125 0.125
0.625 0.125 0.125
0.5 0 0.25
0.625 0 0.25
0.5 0.125 0.25
0.625 0.125 0.25
0.625 0 0.125
0.75 0 0.125
0.625 0.125 0.125
0.75 0.125 0.125
0.625 0 0.25
0.75 0 0.25
0.625 0.125 0.25
0.75 0.125 0.25
0.75 0 0.125
0.875 0 0.125
0.75 0.125 0.125
0.875 0.125 0.125
0.75 0 0.25
0.875 0 0.25
0.75 0.125 0.25
0.875 0.125 0.25
0.875 0 0.125
1 0 0.125
0.875 0.125 0.125
1 0.125 0.125
0.875 0 0.25
1 0 0.25
0.875 0.125 0.25
1 0.125 0.25
0 0.125 0.125
0.125 0.125 0.125
0 0.25 0.125
0.125 0.25 0.125
0 0.125 0.25
0.125 0.125 0.25
0 0.25 0.25
0.125 0.25 0.25
0.125 0.125 0.125
0.25 0.125 0.125
0.125 0.25 0.125
0.25 0.25 0.125
0.125 0.125 0.25
0.25 0.125 0.25
0.125 0.25 0.25
0.25 0.25 0.25
0.25 0.125 0.125
0.375 0.125 0.125
0.25 0.25 0.125
0.375 0.25 0.125
0.25 0.125 0.25
0.375 0.125 0.25
0.25 0.25 0.25
0.375 0.25 0.25
0.375 0.125 0.125
0.5 0.125 0.125
0.375 0.25 0.125
0.5 0.25 0.125
0.375 0.125 0.25
0.5 0.125 0.25
0.375 0.25 0.25
0.5 0.25 0.25
0.5 0.125 0.125
0.625 0.125 0.125
0.5 0.25 0.125
0.625 0.25 0.125
0.5 0.125 0.25
0.625 0.125 0.25
0.5 0.25 0.25
0.625 0.25 0.25
0.625 0.125 0.125
0.75 0.125 0.125
0.625 0.25 0.125
0.75 0.25 0.125
0.625 0.125 0.25
0.75 0.125 0.25
0.625 0.25 0.25
0.75 0.25 0.25
0.75 0.125 0.125
0.875 0.125 0.125
0.75 0.25 0.125
0.875 0.25 0.125
0.75 0.125 0.25
0.875 0.125 0.25
0.75 0.25 0.25
0.875 0.25 0.25
0.875 0.125 0.125
1 0.125 0.125
0.875 0.25 0.125
1 0.25 0.125
0.875 0.125 0.25
1 0.125 0.25
0.875 0.25 0.25
1 0.25 0.25
0 0.25 0.125
0.125 0.25 0.125
0 0.375 0.125
0.125 0.375 0.125
0 0.25 0.25
0.125 0.25 0.25
0 0.375 0.25
0.125 0.375 0.25
0.125 0.25 0.125
0.25 0.25 0.125
0.125 0.375 0.125
0.25 0.375 0.125
0.125 0.25 0.25
0.25 0.25 0.25
0.125 0.375 0.25
0.25 0.375 0.25
0.25 0.25 0.125
0.375 0.25 0.125
0.25 0.375 0.125
0.375 0.375 0.125
0.25 0.25 0.25
0.375 0.25 0.25
0.25 0.375 0.25
0.375 0.375 0.25
0.375 0.25 0.125
0.5 0.25 0.125
0.375 0.375 0.125
0.5 0.375 0.125
0.375 0.25 0.25
0.5 0.25 0.25
0.375 0.375 0.25
0.5 0.375 0.25
0.5 0.25 0.125
0.625 0.25 0.125
0.5 0.375 0.125
0.625 0.375 0.125
0.5 0.25 0.25
0.625 0.25 0.25
0.5 0.375 0.25
0.625 0.375 0.25
0.625 0.25 0.125
0.75 0.25 0.125
0.625 0.375 0.125
0.75 0.375 0.125
0.625 0.25 0.25
[...]
POINT_DATA 4096
VECTORS u double
0 0 0
-0.000633526 6.52174e-05 6.52174e-05
0 0 0
-0.000589351 0.000123098 -5.1167e-05
0 0 0
-0.000589351 -5.1167e-05 0.000123098
0 0 0
-0.000520729 0.000122191 0.000122191
-0.000633526 6.52174e-05 6.52174e-05
-0.0019666 -0.000145082 -0.000145082
-0.000589351 0.000123098 -5.1167e-05
-0.00166218 6.08027e-05 -0.000325838
-0.000589351 -5.1167e-05 0.000123098
-0.00166218 -0.000325838 6.08027e-05
-0.000520729 0.000122191 0.000122191
-0.00147282 0.00012926 0.00012926
-0.0019666 -0.000145082 -0.000145082
-0.00312631 -0.00056047 -0.00056047
-0.00166218 6.08027e-05 -0.000325838
-0.00270333 -0.000479854 -0.00071182
-0.00166218 -0.000325838 6.08027e-05
-0.00270333 -0.00071182 -0.000479854
-0.00147282 0.00012926 0.00012926
-0.00258418 -0.000378467 -0.000378467
-0.00312631 -0.00056047 -0.00056047
-0.00386363 -0.0011553 -0.0011553
-0.00270333 -0.000479854 -0.00071182
-0.00371258 -0.00107151 -0.00134468
-0.00270333 -0.00071182 -0.000479854
-0.00371258 -0.00134468 -0.00107151
-0.00258418 -0.000378467 -0.000378467
-0.00349751 -0.0011116 -0.0011116
-0.00386363 -0.0011553 -0.0011553
-0.00440072 -0.00193067 -0.00193067
-0.00371258 -0.00107151 -0.00134468
-0.00469143 -0.00166922 -0.00213636
-0.00371258 -0.00134468 -0.00107151
-0.00469143 -0.00213636 -0.00166922
-0.00349751 -0.0011116 -0.0011116
-0.00472397 -0.00171478 -0.00171478
-0.00440072 -0.00193067 -0.00193067
-0.0047221 -0.00160829 -0.00160829
-0.00469143 -0.00166922 -0.00213636
-0.00548207 -0.00140682 -0.00184692
-0.00469143 -0.00213636 -0.00166922
-0.00548207 -0.00184692 -0.00140682
-0.00472397 -0.00171478 -0.00171478
-0.00627484 -0.0013274 -0.0013274
-0.0047221 -0.00160829 -0.00160829
-0.00523265 -0.000322302 -0.000322302
-0.00548207 -0.00140682 -0.00184692
-0.00638709 -0.00021862 -0.000421077
-0.00548207 -0.00184692 -0.00140682
-0.00638709 -0.000421077 -0.00021862
-0.00627484 -0.0013274 -0.0013274
-0.00754986 -0.000170904 -0.000170904
-0.00523265 -0.000322302 -0.000322302
-0.00509607 0.000902882 0.000902882
-0.00638709 -0.00021862 -0.000421077
-0.00652974 0.000667472 0.00079239
-0.00638709 -0.000421077 -0.00021862
-0.00652974 0.00079239 0.000667472
-0.00754986 -0.000170904 -0.000170904
-0.00787337 0.000680856 0.000680856
0 0 0
-0.000589351 0.000123098 -5.1167e-05
0 0 0
-0.000819568 -0.000142197 -0.000357181
0 0 0
-0.000520729 0.000122191 0.000122191
0 0 0
-0.000709277 -5.20589e-05 -9.05315e-05
-0.000589351 0.000123098 -5.1167e-05
-0.00166218 6.08027e-05 -0.000325838
-0.000819568 -0.000142197 -0.000357181
-0.00172124 -0.000204995 -0.000678551
-0.000520729 0.000122191 0.000122191
-0.00147282 0.00012926 0.00012926
-0.000709277 -5.20589e-05 -9.05315e-05
-0.00148412 8.51398e-06 -4.13989e-05
-0.00166218 6.08027e-05 -0.000325838
-0.00270333 -0.000479854 -0.00071182
-0.00172124 -0.000204995 -0.000678551
-0.0026928 -0.000596723 -0.000909004
-0.00147282 0.00012926 0.00012926
-0.00258418 -0.000378467 -0.000378467
-0.00148412 8.51398e-06 -4.13989e-05
-0.00261853 -0.000333251 -0.000490901
-0.00270333 -0.000479854 -0.00071182
-0.00371258 -0.00107151 -0.00134468
-0.0026928 -0.000596723 -0.000909004
-0.00406177 -0.00107605 -0.00146873
-0.00258418 -0.000378467 -0.000378467
-0.00349751 -0.0011116 -0.0011116
-0.00261853 -0.000333251 -0.000490901
-0.00391673 -0.000963405 -0.00114164
-0.00371258 -0.00107151 -0.00134468
-0.00469143 -0.00166922 -0.00213636
-0.00406177 -0.00107605 -0.00146873
-0.00552712 -0.00128158 -0.00229877
-0.00349751 -0.0011116 -0.0011116
-0.00472397 -0.00171478 -0.00171478
-0.00391673 -0.000963405 -0.00114164
-0.00556365 -0.00122069 -0.0017251
-0.00469143 -0.00166922 -0.00213636
-0.00548207 -0.00140682 -0.00184692
-0.00552712 -0.00128158 -0.00229877
-0.00656278 -0.00105088 -0.00198138
-0.00472397 -0.00171478 -0.00171478
-0.00627484 -0.0013274 -0.0013274
-0.00556365 -0.00122069 -0.0017251
-0.00728059 -0.000849101 -0.00137809
-0.00548207 -0.00140682 -0.00184692
-0.00638709 -0.00021862 -0.000421077
-0.00656278 -0.00105088 -0.00198138
-0.00753033 -2.52548e-05 -0.000520516
-0.00627484 -0.0013274 -0.0013274
-0.00754986 -0.000170904 -0.000170904
-0.00728059 -0.000849101 -0.00137809
-0.0086405 7.48989e-05 -0.00027177
-0.00638709 -0.00021862 -0.000421077
-0.00652974 0.000667472 0.00079239
-0.00753033 -2.52548e-05 -0.000520516
-0.00758597 0.000482625 0.000518561
-0.00754986 -0.000170904 -0.000170904
-0.00787337 0.000680856 0.000680856
-0.0086405 7.48989e-05 -0.00027177
-0.00885987 0.000568088 0.000429784
0 0 0
-0.000819568 -0.000142197 -0.000357181
0 0 0
-0.00113778 -0.000192486 -0.000618287
0 0 0
-0.000709277 -5.20589e-05 -9.05315e-05
0 0 0
-0.000926749 -8.13538e-05 -0.00039744
-0.000819568 -0.000142197 -0.000357181
-0.00172124 -0.000204995 -0.000678551
-0.00113778 -0.000192486 -0.000618287
-0.00221378 -0.000308005 -0.00106351
-0.000709277 -5.20589e-05 -9.05315e-05
-0.00148412 8.51398e-06 -4.13989e-05
-0.000926749 -8.13538e-05 -0.00039744
-0.00200197 -0.000184476 -0.000518563
-0.00172124 -0.000204995 -0.000678551
-0.0026928 -0.000596723 -0.000909004
-0.00221378 -0.000308005 -0.00106351
-0.00311524 -0.000433471 -0.00110079
-0.00148412 8.51398e-06 -4.13989e-05
-0.00261853 -0.000333251 -0.000490901
-0.00200197 -0.000184476 -0.000518563
-0.00304716 -0.000359111 -0.000814322
-0.0026928 -0.000596723 -0.000909004
-0.00406177 -0.00107605 -0.00146873
-0.00311524 -0.000433471 -0.00110079
-0.00443166 -0.000675343 -0.00144469
-0.00261853 -0.000333251 -0.000490901
-0.00391673 -0.000963405 -0.00114164
-0.00304716 -0.000359111 -0.000814322
-0.00436916 -0.000686294 -0.00127624
-0.00406177 -0.00107605 -0.00146873
-0.00552712 -0.00128158 -0.00229877
-0.00443166 -0.000675343 -0.00144469
-0.00597665 -0.000775593 -0.00234112
-0.00391673 -0.000963405 -0.00114164
-0.00556365 -0.00122069 -0.0017251
-0.00436916 -0.000686294 -0.00127624
-0.00607301 -0.000851275 -0.00183298
-0.00552712 -0.00128158 -0.00229877
-0.00656278 -0.00105088 -0.00198138
-0.00597665 -0.000775593 -0.00234112
-0.00691338 -0.000441254 -0.00205458
-0.00556365 -0.00122069 -0.0017251
-0.00728059 -0.000849101 -0.00137809
-0.00607301 -0.000851275 -0.00183298
-0.00753246 -0.000375309 -0.00159034
-0.00656278 -0.00105088 -0.00198138
-0.00753033 -2.52548e-05 -0.000520516
-0.00691338 -0.000441254 -0.00205458
-0.00759023 0.000138681 -0.000598002
-0.00728059 -0.000849101 -0.00137809
-0.0086405 7.48989e-05 -0.00027177
-0.00753246 -0.000375309 -0.00159034
-0.00863364 0.000255017 -0.000446877
-0.00753033 -2.52548e-05 -0.000520516
-0.00758597 0.000482625 0.000518561
-0.00759023 0.000138681 -0.000598002
-0.00727378 9.07636e-05 0.000541936
-0.0086405 7.48989e-05 -0.00027177
-0.00885987 0.000568088 0.000429784
-0.00863364 0.000255017 -0.000446877
-0.00863755 4.7986e-05 0.000258984
0 0 0
-0.00113778 -0.000192486 -0.000618287
0 0 0
-0.00134009 3.98461e-18 -0.000896763
0 0 0
-0.000926749 -8.13538e-05 -0.00039744
0 0 0
-0.000940086 6.52e-18 -0.00061195
-0.00113778 -0.000192486 -0.000618287
-0.00221378 -0.000308005 -0.00106351
-0.00134009 3.98461e-18 -0.000896763
-0.00244715 9.14492e-18 -0.00122725
-0.000926749 -8.13538e-05 -0.00039744
-0.00200197 -0.000184476 -0.000518563
-0.000940086 6.52e-18 -0.00061195
-0.00222448 5.76127e-18 -0.000823894
-0.00221378 -0.000308005 -0.00106351
-0.00311524 -0.000433471 -0.00110079
-0.00244715 9.14492e-18 -0.00122725
-0.00343603 7.0151e-18 -0.00119301
-0.00200197 -0.000184476 -0.000518563
-0.00304716 -0.000359111 -0.000814322
-0.00222448 5.76127e-18 -0.000823894
-0.00340878 1.04426e-17 -0.00103315
-0.00311524 -0.000433471 -0.00110079
-0.00443166 -0.000675343 -0.00144469
-0.00343603 7.0151e-18 -0.00119301
-0.00467974 1.89332e-18 -0.0013619
-0.00304716 -0.000359111 -0.000814322
-0.00436916 -0.000686294 -0.00127624
-0.00340878 1.04426e-17 -0.00103315
-0.00454404 5.81242e-18 -0.00148855
-0.00443166 -0.000675343 -0.00144469
-0.00597665 -0.000775593 -0.00234112
-0.00467974 1.89332e-18 -0.0013619
-0.00606446 5.10394e-18 -0.00236407
-0.00436916 -0.000686294 -0.00127624
-0.00607301 -0.000851275 -0.00183298
-0.00454404 5.81242e-18 -0.00148855
-0.00615883 2.374e-18 -0.0020065
-0.00597665 -0.000775593 -0.00234112
-0.00691338 -0.000441254 -0.00205458
-0.00606446 5.10394e-18 -0.00236407
-0.00693852 -1.14953e-18 -0.0021294
-0.00607301 -0.000851275 -0.00183298
-0.00753246 -0.000375309 -0.00159034
-0.00615883 2.374e-18 -0.0020065
-0.00764441 -3.84696e-18 -0.00178087
-0.00691338 -0.000441254 -0.00205458
-0.00759023 0.000138681 -0.000598002
-0.00693852 -1.14953e-18 -0.0021294
-0.00730908 -5.57206e-18 -0.000716682
-0.00753246 -0.000375309 -0.00159034
-0.00863364 0.000255017 -0.000446877
-0.00764441 -3.84696e-18 -0.00178087
-0.00826102 -6.56054e-18 -0.000618058
-0.00759023 0.000138681 -0.000598002
-0.00727378 9.07636e-05 0.000541936
-0.00730908 -5.57206e-18 -0.000716682
-0.00669915 -1.39005e-17 0.000447259
-0.00863364 0.000255017 -0.000446877
-0.00863755 4.7986e-05 0.000258984
-0.00826102 -6.56054e-18 -0.000618058
-0.00811946 -1.62648e-17 0.000107193
0 0 0
-0.00134009 3.98461e-18 -0.000896763
0 0 0
-0.00113778 0.000192486 -0.000618287
0 0 0
-0.000940086 6.52e-18 -0.00061195
0 0 0
-0.000926749 8.13538e-05 -0.00039744
-0.00134009 3.98461e-18 -0.000896763
-0.00244715 9.14492e-18 -0.00122725
-0.00113778 0.000192486 -0.000618287
-0.00221378 0.000308005 -0.00106351
-0.000940086 6.52e-18 -0.00061195
-0.00222448 5.76127e-18 -0.000823894
-0.000926749 8.13538e-05 -0.00039744
-0.00200197 0.000184476 -0.000518563
-0.00244715 9.14492e-18 -0.00122725
-0.00343603 7.0151e-18 -0.00119301
-0.00221378 0.000308005 -0.00106351
-0.00311524 0.000433471 -0.00110079
-0.00222448 5.76127e-18 -0.000823894
-0.00340878 1.04426e-17 -0.00103315
-0.00200197 0.000184476 -0.000518563
-0.00304716 0.000359111 -0.000814322
-0.00343603 7.0151e-18 -0.00119301
-0.00467974 1.89332e-18 -0.0013619
-0.00311524 0.000433471 -0.00110079
-0.00443166 0.000675343 -0.00144469
-0.00340878 1.04426e-17 -0.00103315
-0.00454404 5.81242e-18 -0.00148855
-0.00304716 0.000359111 -0.000814322
-0.00436916 0.000686294 -0.00127624
-0.00467974 1.89332e-18 -0.0013619
-0.00606446 5.10394e-18 -0.00236407
-0.00443166 0.000675343 -0.00144469
-0.00597665 0.000775593 -0.00234112
-0.00454404 5.81242e-18 -0.00148855
-0.00615883 2.374e-18 -0.0020065
-0.00436916 0.000686294 -0.00127624
-0.00607301 0.000851275 -0.00183298
-0.00606446 5.10394e-18 -0.00236407
-0.00693852 -1.14953e-18 -0.0021294
-0.00597665 0.000775593 -0.00234112
-0.00691338 0.000441254 -0.00205458
-0.00615883 2.374e-18 -0.0020065
-0.00764441 -3.84696e-18 -0.00178087
-0.00607301 0.000851275 -0.00183298
-0.00753246 0.000375309 -0.00159034
-0.00693852 -1.14953e-18 -0.0021294
-0.00730908 -5.57206e-18 -0.000716682
-0.00691338 0.000441254 -0.00205458
-0.00759023 -0.000138681 -0.000598002
-0.00764441 -3.84696e-18 -0.00178087
-0.00826102 -6.56054e-18 -0.000618058
-0.00753246 0.000375309 -0.00159034
-0.00863364 -0.000255017 -0.000446877
-0.00730908 -5.57206e-18 -0.000716682
-0.00669915 -1.39005e-17 0.000447259
-0.00759023 -0.000138681 -0.000598002
-0.00727378 -9.07636e-05 0.000541936
-0.00826102 -6.56054e-18 -0.000618058
-0.00811946 -1.62648e-17 0.000107193
-0.00863364 -0.000255017 -0.000446877
-0.00863755 -4.7986e-05 0.000258984
0 0 0
-0.00113778 0.000192486 -0.000618287
0 0 0
-0.000819568 0.000142197 -0.000357181
0 0 0
-0.000926749 8.13538e-05 -0.00039744
0 0 0
-0.000709277 5.20589e-05 -9.05315e-05
-0.00113778 0.000192486 -0.000618287
-0.00221378 0.000308005 -0.00106351
-0.000819568 0.000142197 -0.000357181
-0.00172124 0.000204995 -0.000678551
-0.000926749 8.13538e-05 -0.00039744
-0.00200197 0.000184476 -0.000518563
-0.000709277 5.20589e-05 -9.05315e-05
-0.00148412 -8.51398e-06 -4.13989e-05
-0.00221378 0.000308005 -0.00106351
-0.00311524 0.000433471 -0.00110079
-0.00172124 0.000204995 -0.000678551
-0.0026928 0.000596723 -0.000909004
-0.00200197 0.000184476 -0.000518563
-0.00304716 0.000359111 -0.000814322
-0.00148412 -8.51398e-06 -4.13989e-05
-0.00261853 0.000333251 -0.000490901
-0.00311524 0.000433471 -0.00110079
-0.00443166 0.000675343 -0.00144469
-0.0026928 0.000596723 -0.000909004
-0.00406177 0.00107605 -0.00146873
-0.00304716 0.000359111 -0.000814322
-0.00436916 0.000686294 -0.00127624
-0.00261853 0.000333251 -0.000490901
-0.00391673 0.000963405 -0.00114164
-0.00443166 0.000675343 -0.00144469
-0.00597665 0.000775593 -0.00234112
-0.00406177 0.00107605 -0.00146873
-0.00552712 0.00128158 -0.00229877
-0.00436916 0.000686294 -0.00127624
-0.00607301 0.000851275 -0.00183298
-0.00391673 0.000963405 -0.00114164
-0.00556365 0.00122069 -0.0017251
-0.00597665 0.000775593 -0.00234112
-0.00691338 0.000441254 -0.00205458
-0.00552712 0.00128158 -0.00229877
-0.00656278 0.00105088 -0.00198138
-0.00607301 0.000851275 -0.00183298
-0.00753246 0.000375309 -0.00159034
-0.00556365 0.00122069 -0.0017251
-0.00728059 0.000849101 -0.00137809
-0.00691338 0.000441254 -0.00205458
-0.00759023 -0.000138681 -0.000598002
-0.00656278 0.00105088 -0.00198138
-0.00753033 2.52548e-05 -0.000520516
-0.00753246 0.000375309 -0.00159034
-0.00863364 -0.000255017 -0.000446877
-0.00728059 0.000849101 -0.00137809
-0.0086405 -7.48989e-05 -0.00027177
-0.00759023 -0.000138681 -0.000598002
-0.00727378 -9.07636e-05 0.000541936
-0.00753033 2.52548e-05 -0.000520516
-0.00758597 -0.000482625 0.000518561
-0.00863364 -0.000255017 -0.000446877
-0.00863755 -4.7986e-05 0.000258984
-0.0086405 -7.48989e-05 -0.00027177
-0.00885987 -0.000568088 0.000429784
0 0 0
-0.000819568 0.000142197 -0.000357181
0 0 0
-0.000589351 -0.000123098 -5.1167e-05
0 0 0
-0.000709277 5.20589e-05 -9.05315e-05
0 0 0
-0.000520729 -0.000122191 0.000122191
-0.000819568 0.000142197 -0.000357181
-0.00172124 0.000204995 -0.000678551
-0.000589351 -0.000123098 -5.1167e-05
-0.00166218 -6.08027e-05 -0.000325838
-0.000709277 5.20589e-05 -9.05315e-05
-0.00148412 -8.51398e-06 -4.13989e-05
-0.000520729 -0.000122191 0.000122191
-0.00147282 -0.00012926 0.00012926
-0.00172124 0.000204995 -0.000678551
-0.0026928 0.000596723 -0.000909004
-0.00166218 -6.08027e-05 -0.000325838
-0.00270333 0.000479854 -0.00071182
-0.00148412 -8.51398e-06 -4.13989e-05
-0.00261853 0.000333251 -0.000490901
-0.00147282 -0.00012926 0.00012926
-0.00258418 0.000378467 -0.000378467
-0.0026928 0.000596723 -0.000909004
-0.00406177 0.00107605 -0.00146873
-0.00270333 0.000479854 -0.00071182
-0.00371258 0.00107151 -0.00134468
-0.00261853 0.000333251 -0.000490901
-0.00391673 0.000963405 -0.00114164
-0.00258418 0.000378467 -0.000378467
-0.00349751 0.0011116 -0.0011116
-0.00406177 0.00107605 -0.00146873
-0.00552712 0.00128158 -0.00229877
-0.00371258 0.00107151 -0.00134468
-0.00469143 0.00166922 -0.00213636
-0.00391673 0.000963405 -0.00114164
-0.00556365 0.00122069 -0.0017251
-0.00349751 0.0011116 -0.0011116
-0.00472397 0.00171478 -0.00171478
-0.00552712 0.00128158 -0.00229877
-0.00656278 0.00105088 -0.00198138
-0.00469143 0.00166922 -0.00213636
-0.00548207 0.00140682 -0.00184692
-0.00556365 0.00122069 -0.0017251
-0.00728059 0.000849101 -0.00137809
-0.00472397 0.00171478 -0.00171478
-0.00627484 0.0013274 -0.0013274
-0.00656278 0.00105088 -0.00198138
-0.00753033 2.52548e-05 -0.000520516
-0.00548207 0.00140682 -0.00184692
-0.00638709 0.00021862 -0.000421077
-0.00728059 0.000849101 -0.00137809
-0.0086405 -7.48989e-05 -0.00027177
-0.00627484 0.0013274 -0.0013274
-0.00754986 0.000170904 -0.000170904
-0.00753033 2.52548e-05 -0.000520516
-0.00758597 -0.000482625 0.000518561
-0.00638709 0.00021862 -0.000421077
-0.00652974 -0.000667472 0.00079239
-0.0086405 -7.48989e-05 -0.00027177
-0.00885987 -0.000568088 0.000429784
-0.00754986 0.000170904 -0.000170904
-0.00787337 -0.000680856 0.000680856
0 0 0
-0.000589351 -0.000123098 -5.1167e-05
0 0 0
-0.000633526 -6.52174e-05 6.52174e-05
0 0 0
-0.000520729 -0.000122191 0.000122191
0 0 0
-0.000589351 5.1167e-05 0.000123098
-0.000589351 -0.000123098 -5.1167e-05
-0.00166218 -6.08027e-05 -0.000325838
-0.000633526 -6.52174e-05 6.52174e-05
-0.0019666 0.000145082 -0.000145082
-0.000520729 -0.000122191 0.000122191
-0.00147282 -0.00012926 0.00012926
-0.000589351 5.1167e-05 0.000123098
-0.00166218 0.000325838 6.08027e-05
-0.00166218 -6.08027e-05 -0.000325838
-0.00270333 0.000479854 -0.00071182
-0.0019666 0.000145082 -0.000145082
-0.00312631 0.00056047 -0.00056047
-0.00147282 -0.00012926 0.00012926
-0.00258418 0.000378467 -0.000378467
-0.00166218 0.000325838 6.08027e-05
-0.00270333 0.00071182 -0.000479854
-0.00270333 0.000479854 -0.00071182
-0.00371258 0.00107151 -0.00134468
-0.00312631 0.00056047 -0.00056047
-0.00386363 0.0011553 -0.0011553
-0.00258418 0.000378467 -0.000378467
-0.00349751 0.0011116 -0.0011116
-0.00270333 0.00071182 -0.000479854
-0.00371258 0.00134468 -0.00107151
-0.00371258 0.00107151 -0.00134468
-0.00469143 0.00166922 -0.00213636
-0.00386363 0.0011553 -0.0011553
-0.00440072 0.00193067 -0.00193067
-0.00349751 0.0011116 -0.0011116
-0.00472397 0.00171478 -0.00171478
-0.00371258 0.00134468 -0.00107151
-0.00469143 0.00213636 -0.00166922
-0.00469143 0.00166922 -0.00213636
-0.00548207 0.00140682 -0.00184692
-0.00440072 0.00193067 -0.00193067
-0.0047221 0.00160829 -0.00160829
-0.00472397 0.00171478 -0.00171478
-0.00627484 0.0013274 -0.0013274
-0.00469143 0.00213636 -0.00166922
-0.00548207 0.00184692 -0.00140682
-0.00548207 0.00140682 -0.00184692
-0.00638709 0.00021862 -0.000421077
-0.0047221 0.00160829 -0.00160829
-0.00523265 0.000322302 -0.000322302
-0.00627484 0.0013274 -0.0013274
-0.00754986 0.000170904 -0.000170904
-0.00548207 0.00184692 -0.00140682
-0.00638709 0.000421077 -0.00021862
-0.00638709 0.00021862 -0.000421077
-0.00652974 -0.000667472 0.00079239
-0.00523265 0.000322302 -0.000322302
-0.00509607 -0.000902882 0.000902882
-0.00754986 0.000170904 -0.000170904
-0.00787337 -0.000680856 0.000680856
-0.00638709 0.000421077 -0.00021862
-0.00652974 -0.00079239 0.000667472
0 0 0
-0.000589351 -5.1167e-05 0.000123098
0 0 0
-0.000520729 0.000122191 0.000122191
0 0 0
-0.000819568 -0.000357181 -0.000142197
0 0 0
-0.000709277 -9.05315e-05 -5.20589e-05
-0.000589351 -5.1167e-05 0.000123098
-0.00166218 -0.000325838 6.08027e-05
-0.000520729 0.000122191 0.000122191
-0.00147282 0.00012926 0.00012926
-0.000819568 -0.000357181 -0.000142197
-0.00172124 -0.000678551 -0.000204995
-0.000709277 -9.05315e-05 -5.20589e-05
-0.00148412 -4.13989e-05 8.51398e-06
-0.00166218 -0.000325838 6.08027e-05
-0.00270333 -0.00071182 -0.000479854
-0.00147282 0.00012926 0.00012926
-0.00258418 -0.000378467 -0.000378467
-0.00172124 -0.000678551 -0.000204995
-0.0026928 -0.000909004 -0.000596723
-0.00148412 -4.13989e-05 8.51398e-06
-0.00261853 -0.000490901 -0.000333251
-0.00270333 -0.00071182 -0.000479854
-0.00371258 -0.00134468 -0.00107151
-0.00258418 -0.000378467 -0.000378467
-0.00349751 -0.0011116 -0.0011116
-0.0026928 -0.000909004 -0.000596723
-0.00406177 -0.00146873 -0.00107605
-0.00261853 -0.000490901 -0.000333251
-0.00391673 -0.00114164 -0.000963405
-0.00371258 -0.00134468 -0.00107151
-0.00469143 -0.00213636 -0.00166922
-0.00349751 -0.0011116 -0.0011116
-0.00472397 -0.00171478 -0.00171478
-0.00406177 -0.00146873 -0.00107605
-0.00552712 -0.00229877 -0.00128158
-0.00391673 -0.00114164 -0.000963405
-0.00556365 -0.0017251 -0.00122069
-0.00469143 -0.00213636 -0.00166922
-0.00548207 -0.00184692 -0.00140682
-0.00472397 -0.00171478 -0.00171478
-0.00627484 -0.0013274 -0.0013274
-0.00552712 -0.00229877 -0.00128158
-0.00656278 -0.00198138 -0.00105088
-0.00556365 -0.0017251 -0.00122069
-0.00728059 -0.00137809 -0.000849101
-0.00548207 -0.00184692 -0.00140682
-0.00638709 -0.000421077 -0.00021862
-0.00627484 -0.0013274 -0.0013274
-0.00754986 -0.000170904 -0.000170904
-0.00656278 -0.00198138 -0.00105088
-0.00753033 -0.000520516 -2.52548e-05
-0.00728059 -0.00137809 -0.000849101
-0.0086405 -0.00027177 7.48989e-05
-0.00638709 -0.000421077 -0.00021862
-0.00652974 0.00079239 0.000667472
-0.00754986 -0.000170904 -0.000170904
-0.00787337 0.000680856 0.000680856
-0.00753033 -0.000520516 -2.52548e-05
-0.00758597 0.000518561 0.000482625
-0.0086405 -0.00027177 7.48989e-05
-0.00885987 0.000429784 0.000568088
0 0 0
-0.000520729 0.000122191 0.000122191
0 0 0
-0.000709277 -5.20589e-05 -9.05315e-05
0 0 0