# vtk DataFile Version 3.0
#This file was generated by the deal.II library on 2018/12/3 at 16:41:08
ASCII
DATASET UNSTRUCTURED_GRID

POINTS 8000 double
0 0 0
0.1 0 0
0 0.1 0
0.1 0.1 0
0 0 0.1
0.1 0 0.1
0 0.1 0.1
0.1 0.1 0.1
0.1 0 0
0.2 0 0
0.1 0.1 0
0.2 0.1 0
0.1 0 0.1
0.2 0 0.1
0.1 0.1 0.1
0.2 0.1 0.1
0.2 0 0
0.3 0 0
0.2 0.1 0
0.3 0.1 0
0.2 0 0.1
0.3 0 0.1
0.2 0.1 0.1
0.3 0.1 0.1
0.3 0 0
0.4 0 0
0.3 0.1 0
0.4 0.1 0
0.3 0 0.1
0.4 0 0.1
0.3 0.1 0.1
0.4 0.1 0.1
0.4 0 0
0.5 0 0
0.4 0.1 0
0.5 0.1 0
0.4 0 0.1
0.5 0 0.1
0.4 0.1 0.1
0.5 0.1 0.1
0.5 0 0
0.6 0 0
0.5 0.1 0
0.6 0.1 0
0.5 0 0.1
0.6 0 0.1
0.5 0.1 0.1
0.6 0.1 0.1
0.6 0 0
0.7 0 0
0.6 0.1 0
0.7 0.1 0
0.6 0 0.1
0.7 0 0.1
0.6 0.1 0.1
0.7 0.1 0.1
0.7 0 0
0.8 0 0
0.7 0.1 0
0.8 0.1 0
0.7 0 0.1
0.8 0 0.1
0.7 0.1 0.1
0.8 0.1 0.1
0.8 0 0
0.9 0 0
0.8 0.1 0
0.9 0.1 0
0.8 0 0.1
0.9 0 0.1
0.8 0.1 0.1
0.9 0.1 0.1
0.9 0 0
1 0 0
0.9 0.1 0
1 0.1 0
0.9 0 0.1
1 0 0.1
0.9 0.1 0.1
1 0.1 0.1
0 0.1 0
0.1 0.1 0
0 0.2 0
0.1 0.2 0
0 0.1 0.1
0.1 0.1 0.1
0 0.2 0.1
0.1 0.2 0.1
0.1 0.1 0
0.2 0.1 0
0.1 0.2 0
0.2 0.2 0
0.1 0.1 0.1
0.2 0.1 0.1
0.1 0.2 0.1
0.2 0.2 0.1
0.2 0.1 0
0.3 0.1 0
0.2 0.2 0
0.3 0.2 0
0.2 0.1 0.1
0.3 0.1 0.1
0.2 0.2 0.1
0.3 0.2 0.1
0.3 0.1 0
0.4 0.1 0
0.3 0.2 0
0.4 0.2 0
0.3 0.1 0.1
0.4 0.1 0.1
0.3 0.2 0.1
0.4 0.2 0.1
0.4 0.1 0
0.5 0.1 0
0.4 0.2 0
0.5 0.2 0
0.4 0.1 0.1
0.5 0.1 0.1
0.4 0.2 0.1
0.5 0.2 0.1
0.5 0.1 0
0.6 0.1 0
0.5 0.2 0
0.6 0.2 0
0.5 0.1 0.1
0.6 0.1 0.1
0.5 0.2 0.1
0.6 0.2 0.1
0.6 0.1 0
0.7 0.1 0
0.6 0.2 0
0.7 0.2 0
0.6 0.1 0.1
0.7 0.1 0.1
0.6 0.2 0.1
0.7 0.2 0.1
0.7 0.1 0
0.8 0.1 0
0.7 0.2 0
0.8 0.2 0
0.7 0.1 0.1
0.8 0.1 0.1
0.7 0.2 0.1
0.8 0.2 0.1
0.8 0.1 0
0.9 0.1 0
0.8 0.2 0
0.9 0.2 0
0.8 0.1 0.1
0.9 0.1 0.1
0.8 0.2 0.1
0.9 0.2 0.1
0.9 0.1 0
1 0.1 0
0.9 0.2 0
1 0.2 0
0.9 0.1 0.1
1 0.1 0.1
0.9 0.2 0.1
1 0.2 0.1
0 0.2 0
0.1 0.2 0
0 0.3 0
0.1 0.3 0
0 0.2 0.1
0.1 0.2 0.1
0 0.3 0.1
0.1 0.3 0.1
0.1 0.2 0
0.2 0.2 0
0.1 0.3 0
0.2 0.3 0
0.1 0.2 0.1
0.2 0.2 0.1
0.1 0.3 0.1
0.2 0.3 0.1
0.2 0.2 0
0.3 0.2 0
0.2 0.3 0
0.3 0.3 0
0.2 0.2 0.1
0.3 0.2 0.1
0.2 0.3 0.1
0.3 0.3 0.1
0.3 0.2 0
0.4 0.2 0
0.3 0.3 0
0.4 0.3 0
0.3 0.2 0.1
0.4 0.2 0.1
0.3 0.3 0.1
0.4 0.3 0.1
0.4 0.2 0
0.5 0.2 0
0.4 0.3 0
0.5 0.3 0
0.4 0.2 0.1
0.5 0.2 0.1
0.4 0.3 0.1
0.5 0.3 0.1
0.5 0.2 0
0.6 0.2 0
0.5 0.3 0
0.6 0.3 0
0.5 0.2 0.1
0.6 0.2 0.1
0.5 0.3 0.1
0.6 0.3 0.1
0.6 0.2 0
0.7 0.2 0
0.6 0.3 0
0.7 0.3 0
0.6 0.2 0.1
0.7 0.2 0.1
0.6 0.3 0.1
0.7 0.3 0.1
0.7 0.2 0
0.8 0.2 0
0.7 0.3 0
0.8 0.3 0
0.7 0.2 0.1
0.8 0.2 0.1
0.7 0.3 0.1
0.8 0.3 0.1
0.8 0.2 0
0.9 0.2 0
0.8 0.3 0
0.9 0.3 0
0.8 0.2 0.1
0.9 0.2 0.1
0.8 0.3 0.1
0.9 0.3 0.1
0.9 0.2 0
1 0.2 0
0.9 0.3 0
1 0.3 0
0.9 0.2 0.1
1 0.2 0.1
0.9 0.3 0.1
1 0.3 0.1
0 0.3 0
0.1 0.3 0
0 0.4 0
0.1 0.4 0
0 0.3 0.1
0.1 0.3 0.1
0 0.4 0.1
0.1 0.4 0.1
0.1 0.3 0
0.2 0.3 0
0.1 0.4 0
0.2 0.4 0
0.1 0.3 0.1
0.2 0.3 0.1
0.1 0.4 0.1
0.2 0.4 0.1
0.2 0.3 0
0.3 0.3 0
0.2 0.4 0
0.3 0.4 0
0.2 0.3 0.1
0.3 0.3 0.1
0.2 0.4 0.1
0.3 0.4 0.1
0.3 0.3 0
0.4 0.3 0
0.3 0.4 0
0.4 0.4 0
0.3 0.3 0.1
0.4 0.3 0.1
0.3 0.4 0.1
0.4 0.4 0.1
0.4 0.3 0
0.5 0.3 0
0.4 0.4 0
0.5 0.4 0
0.4 0.3 0.1
0.5 0.3 0.1
0.4 0.4 0.1
0.5 0.4 0.1
0.5 0.3 0
0.6 0.3 0
0.5 0.4 0
0.6 0.4 0
0.5 0.3 0.1
0.6 0.3 0.1
0.5 0.4 0.1
0.6 0.4 0.1
0.6 0.3 0
0.7 0.3 0
0.6 0.4 0
0.7 0.4 0
0.6 0.3 0.1
0.7 0.3 0.1
0.6 0.4 0.1
0.7 0.4 0.1
0.7 0.3 0
0.8 0.3 0
0.7 0.4 0
0.8 0.4 0
0.7 0.3 0.1
0.8 0.3 0.1
0.7 0.4 0.1
0.8 0.4 0.1
0.8 0.3 0
0.9 0.3 0
0.8 0.4 0
0.9 0.4 0
0.8 0.3 0.1
0.9 0.3 0.1
0.8 0.4 0.1
0.9 0.4 0.1
0.9 0.3 0
1 0.3 0
0.9 0.4 0
1 0.4 0
0.9 0.3 0.1
1 0.3 0.1
0.9 0.4 0.1
1 0.4 0.1
0 0.4 0
0.1 0.4 0
0 0.5 0
0.1 0.5 0
0 0.4 0.1
0.1 0.4 0.1
0 0.5 0.1
0.1 0.5 0.1
0.1 0.4 0
0.2 0.4 0
0.1 0.5 0
0.2 0.5 0
0.1 0.4 0.1
0.2 0.4 0.1
0.1 0.5 0.1
0.2 0.5 0.1
0.2 0.4 0
0.3 0.4 0
0.2 0.5 0
0.3 0.5 0
0.2 0.4 0.1
0.3 0.4 0.1
0.2 0.5 0.1
0.3 0.5 0.1
0.3 0.4 0
0.4 0.4 0
0.3 0.5 0
0.4 0.5 0
0.3 0.4 0.1
0.4 0.4 0.1
0.3 0.5 0.1
0.4 0.5 0.1
0.4 0.4 0
0.5 0.4 0
0.4 0.5 0
0.5 0.5 0
0.4 0.4 0.1
0.5 0.4 0.1
0.4 0.5 0.1
0.5 0.5 0.1
0.5 0.4 0
0.6 0.4 0
0.5 0.5 0
0.6 0.5 0
0.5 0.4 0.1
0.6 0.4 0.1
0.5 0.5 0.1
0.6 0.5 0.1
0.6 0.4 0
0.7 0.4 0
0.6 0.5 0
0.7 0.5 0
0.6 0.4 0.1
0.7 0.4 0.1
0.6 0.5 0.1
0.7 0.5 0.1
0.7 0.4 0
0.8 0.4 0
0.7 0.5 0
0.8 0.5 0
0.7 0.4 0.1
0.8 0.4 0.1
0.7 0.5 0.1
0.8 0.5 0.1
0.8 0.4 0
0.9 0.4 0
0.8 0.5 0
0.9 0.5 0
0.8 0.4 0.1
0.9 0.4 0.1
0.8 0.5 0.1
0.9 0.5 0.1
0.9 0.4 0
1 0.4 0
0.9 0.5 0
1 0.5 0
0.9 0.4 0.1
1 0.4 0.1
0.9 0.5 0.1
1 0.5 0.1
0 0.5 0
0.1 0.5 0
0 0.6 0
0.1 0.6 0
0 0.5 0.1
0.1 0.5 0.1
0 0.6 0.1
0.1 0.6 0.1
0.1 0.5 0
0.2 0.5 0
0.1 0.6 0
0.2 0.6 0
0.1 0.5 0.1
0.2 0.5 0.1
0.1 0.6 0.1
0.2 0.6 0.1
0.2 0.5 0
0.3 0.5 0
0.2 0.6 0
0.3 0.6 0
0.2 0.5 0.1
0.3 0.5 0.1
0.2 0.6 0.1
0.3 0.6 0.1
0.3 0.5 0
0.4 0.5 0
0.3 0.6 0
0.4 0.6 0
0.3 0.5 0.1
0.4 0.5 0.1
0.3 0.6 0.1
0.4 0.6 0.1
0.4 0.5 0
0.5 0.5 0
0.4 0.6 0
0.5 0.6 0
0.4 0.5 0.1
0.5 0.5 0.1
0.4 0.6 0.1
0.5 0.6 0.1
0.5 0.5 0
0.6 0.5 0
0.5 0.6 0
0.6 0.6 0
0.5 0.5 0.1
0.6 0.5 0.1
0.5 0.6 0.1
0.6 0.6 0.1
0.6 0.5 0
0.7 0.5 0
0.6 0.6 0
0.7 0.6 0
0.6 0.5 0.1
0.7 0.5 0.1
0.6 0.6 0.1
0.7 0.6 0.1
0.7 0.5 0
0.8 0.5 0
0.7 0.6 0
0.8 0.6 0
0.7 0.5 0.1
0.8 0.5 0.1
0.7 0.6 0.1
0.8 0.6 0.1
0.8 0.5 0
0.9 0.5 0
0.8 0.6 0
0.9 0.6 0
0.8 0.5 0.1
0.9 0.5 0.1
0.8 0.6 0.1
0.9 0.6 0.1
0.9 0.5 0
1 0.5 0
0.9 0.6 0
1 0.6 0
0.9 0.5 0.1
1 0.5 0.1
0.9 0.6 0.1
1 0.6 0.1
0 0.6 0
0.1 0.6 0
0 0.7 0
0.1 0.7 0
0 0.6 0.1
0.1 0.6 0.1
0 0.7 0.1
0.1 0.7 0.1
0.1 0.6 0
0.2 0.6 0
0.1 0.7 0
0.2 0.7 0
0.1 0.6 0.1
0.2 0.6 0.1
0.1 0.7 0.1
0.2 0.7 0.1
0.2 0.6 0
0.3 0.6 0
0.2 0.7 0
0.3 0.7 0
0.2 0.6 0.1
0.3 0.6 0.1
0.2 0.7 0.1
0.3 0.7 0.1
0.3 0.6 0
0.4 0.6 0
0.3 0.7 0
0.4 0.7 0
0.3 0.6 0.1
0.4 0.6 0.1
0.3 0.7 0.1
0.4 0.7 0.1
0.4 0.6 0
0.5 0.6 0
0.4 0.7 0
0.5 0.7 0
0.4 0.6 0.1
0.5 0.6 0.1
0.4 0.7 0.1
0.5 0.7 0.1
0.5 0.6 0
0.6 0.6 0
0.5 0.7 0
0.6 0.7 0
0.5 0.6 0.1
0.6 0.6 0.1
0.5 0.7 0.1
0.6 0.7 0.1
0.6 0.6 0
0.7 0.6 0
0.6 0.7 0
0.7 0.7 0
0.6 0.6 0.1
0.7 0.6 0.1
0.6 0.7 0.1
0.7 0.7 0.1
0.7 0.6 0
0.8 0.6 0
0.7 0.7 0
0.8 0.7 0
0.7 0.6 0.1
0.8 0.6 0.1
0.7 0.7 0.1
0.8 0.7 0.1
0.8 0.6 0
0.9 0.6 0
0.8 0.7 0
0.9 0.7 0
0.8 0.6 0.1
0.9 0.6 0.1
0.8 0.7 0.1
0.9 0.7 0.1
0.9 0.6 0
1 0.6 0
0.9 0.7 0
1 0.7 0
0.9 0.6 0.1
1 0.6 0.1
0.9 0.7 0.1
1 0.7 0.1
0 0.7 0
0.1 0.7 0
0 0.8 0
0.1 0.8 0
0 0.7 0.1
0.1 0.7 0.1
0 0.8 0.1
0.1 0.8 0.1
0.1 0.7 0
0.2 0.7 0
0.1 0.8 0
0.2 0.8 0
0.1 0.7 0.1
0.2 0.7 0.1
0.1 0.8 0.1
0.2 0.8 0.1
0.2 0.7 0
0.3 0.7 0
0.2 0.8 0
0.3 0.8 0
0.2 0.7 0.1
0.3 0.7 0.1
0.2 0.8 0.1
0.3 0.8 0.1
0.3 0.7 0
0.4 0.7 0
0.3 0.8 0
0.4 0.8 0
0.3 0.7 0.1
0.4 0.7 0.1
0.3 0.8 0.1
0.4 0.8 0.1
0.4 0.7 0
0.5 0.7 0
0.4 0.8 0
0.5 0.8 0
0.4 0.7 0.1
0.5 0.7 0.1
0.4 0.8 0.1
0.5 0.8 0.1
0.5 0.7 0
0.6 0.7 0
0.5 0.8 0
0.6 0.8 0
0.5 0.7 0.1
0.6 0.7 0.1
0.5 0.8 0.1
0.6 0.8 0.1
0.6 0.7 0
0.7 0.7 0
0.6 0.8 0
0.7 0.8 0
0.6 0.7 0.1
0.7 0.7 0.1
0.6 0.8 0.1
0.7 0.8 0.1
0.7 0.7 0
0.8 0.7 0
0.7 0.8 0
0.8 0.8 0
0.7 0.7 0.1
0.8 0.7 0.1
0.7 0.8 0.1
0.8 0.8 0.1
0.8 0.7 0
0.9 0.7 0
0.8 0.8 0
0.9 0.8 0
0.8 0.7 0.1
0.9 0.7 0.1
0.8 0.8 0.1
0.9 0.8 0.1
0.9 0.7 0
1 0.7 0
0.9 0.8 0
1 0.8 0
0.9 0.7 0.1
1 0.7 0.1
0.9 0.8 0.1
1 0.8 0.1
0 0.8 0
0.1 0.8 0
0 0.9 0
0.1 0.9 0
0 0.8 0.1
0.1 0.8 0.1
0 0.9 0.1
0.1 0.9 0.1
0.1 0.8 0
0.2 0.8 0
0.1 0.9 0
0.2 0.9 0
0.1 0.8 0.1
0.2 0.8 0.1
0.1 0.9 0.1
0.2 0.9 0.1
0.2 0.8 0
0.3 0.8 0
0.2 0.9 0
0.3 0.9 0
0.2 0.8 0.1
0.3 0.8 0.1
0.2 0.9 0.1
0.3 0.9 0.1
0.3 0.8 0
0.4 0.8 0
0.3 0.9 0
0.4 0.9 0
0.3 0.8 0.1
0.4 0.8 0.1
0.3 0.9 0.1
0.4 0.9 0.1
0.4 0.8 0
0.5 0.8 0
0.4 0.9 0
0.5 0.9 0
0.4 0.8 0.1
0.5 0.8 0.1
0.4 0.9 0.1
0.5 0.9 0.1
0.5 0.8 0
0.6 0.8 0
0.5 0.9 0
0.6 0.9 0
0.5 0.8 0.1
0.6 0.8 0.1
0.5 0.9 0.1
0.6 0.9 0.1
0.6 0.8 0
0.7 0.8 0
0.6 0.9 0
0.7 0.9 0
0.6 0.8 0.1
0.7 0.8 0.1
0.6 0.9 0.1
0.7 0.9 0.1
0.7 0.8 0
0.8 0.8 0
0.7 0.9 0
0.8 0.9 0
0.7 0.8 0.1
0.8 0.8 0.1
0.7 0.9 0.1
0.8 0.9 0.1
0.8 0.8 0
0.9 0.8 0
0.8 0.9 0
0.9 0.9 0
0.8 0.8 0.1
0.9 0.8 0.1
0.8 0.9 0.1
0.9 0.9 0.1
0.9 0.8 0
1 0.8 0
0.9 0.9 0
1 0.9 0
0.9 0.8 0.1
1 0.8 0.1
0.9 0.9 0.1
1 0.9 0.1
0 0.9 0
0.1 0.9 0
0 1 0
0.1 1 0
0 0.9 0.1
0.1 0.9 0.1
0 1 0.1
0.1 1 0.1
0.1 0.9 0
0.2 0.9 0
0.1 1 0
0.2 1 0
0.1 0.9 0.1
0.2 0.9 0.1
0.1 1 0.1
0.2 1 0.1
0.2 0.9 0
0.3 0.9 0
0.2 1 0
0.3 1 0
0.2 0.9 0.1
0.3 0.9 0.1
0.2 1 0.1
0.3 1 0.1
0.3 0.9 0
0.4 0.9 0
0.3 1 0
0.4 1 0
0.3 0.9 0.1
0.4 0.9 0.1
0.3 1 0.1
0.4 1 0.1
0.4 0.9 0
0.5 0.9 0
0.4 1 0
0.5 1 0
0.4 0.9 0.1
0.5 0.9 0.1
0.4 1 0.1
0.5 1 0.1
0.5 0.9 0
0.6 0.9 0
0.5 1 0
0.6 1 0
0.5 0.9 0.1
0.6 0.9 0.1
0.5 1 0.1
0.6 1 0.1
0.6 0.9 0
0.7 0.9 0
0.6 1 0
0.7 1 0
0.6 0.9 0.1
0.7 0.9 0.1
0.6 1 0.1
0.7 1 0.1
0.7 0.9 0
0.8 0.9 0
0.7 1 0
0.8 1 0
0.7 0.9 0.1
0.8 0.9 0.1
0.7 1 0.1
0.8 1 0.1
0.8 0.9 0
0.9 0.9 0
0.8 1 0
0.9 1 0
0.8 0.9 0.1
0.9 0.9 0.1
0.8 1 0.1
0.9 1 0.1
0.9 0.9 0
1 0.9 0
0.9 1 0
1 1 0
0.9 0.9 0.1
1 0.9 0.1
0.9 1 0.1
1 1 0.1
0 0 0.1
0.1 0 0.1
0 0.1 0.1
0.1 0.1 0.1
0 0 0.2
0.1 0 0.2
0 0.1 0.2
0.1 0.1 0.2
0.1 0 0.1
0.2 0 0.1
0.1 0.1 0.1
0.2 0.1 0.1
0.1 0 0.2
0.2 0 0.2
0.1 0.1 0.2
0.2 0.1 0.2
0.2 0 0.1
0.3 0 0.1
0.2 0.1 0.1
0.3 0.1 0.1
0.2 0 0.2
0.3 0 0.2
0.2 0.1 0.2
0.3 0.1 0.2
0.3 0 0.1
0.4 0 0.1
0.3 0.1 0.1
0.4 0.1 0.1
0.3 0 0.2
0.4 0 0.2
0.3 0.1 0.2
0.4 0.1 0.2
0.4 0 0.1
0.5 0 0.1
0.4 0.1 0.1
0.5 0.1 0.1
0.4 0 0.2
0.5 0 0.2
0.4 0.1 0.2
0.5 0.1 0.2
0.5 0 0.1
0.6 0 0.1
0.5 0.1 0.1
0.6 0.1 0.1
0.5 0 0.2
0.6 0 0.2
0.5 0.1 0.2
0.6 0.1 0.2
0.6 0 0.1
0.7 0 0.1
0.6 0.1 0.1
0.7 0.1 0.1
0.6 0 0.2
0.7 0 0.2
0.6 0.1 0.2
0.7 0.1 0.2
0.7 0 0.1
0.8 0 0.1
0.7 0.1 0.1
0.8 0.1 0.1
0.7 0 0.2
0.8 0 0.2
0.7 0.1 0.2
0.8 0.1 0.2
0.8 0 0.1
0.9 0 0.1
0.8 0.1 0.1
0.9 0.1 0.1
0.8 0 0.2
0.9 0 0.2
0.8 0.1 0.2
0.9 0.1 0.2
0.9 0 0.1
1 0 0.1
0.9 0.1 0.1
1 0.1 0.1
0.9 0 0.2
1 0 0.2
0.9 0.1 0.2
1 0.1 0.2
0 0.1 0.1
0.1 0.1 0.1
0 0.2 0.1
0.1 0.2 0.1
0 0.1 0.2
0.1 0.1 0.2
0 0.2 0.2
0.1 0.2 0.2
0.1 0.1 0.1
0.2 0.1 0.1
0.1 0.2 0.1
0.2 0.2 0.1
0.1 0.1 0.2
0.2 0.1 0.2
0.1 0.2 0.2
0.2 0.2 0.2
0.2 0.1 0.1
0.3 0.1 0.1
0.2 0.2 0.1
0.3 0.2 0.1
0.2 0.1 0.2
0.3 0.1 0.2
0.2 0.2 0.2
0.3 0.2 0.2
0.3 0.1 0.1
0.4 0.1 0.1
0.3 0.2 0.1
0.4 0.2 0.1
0.3 0.1 0.2
0.4 0.1 0.2
0.3 0.2 0.2
0.4 0.2 0.2
0.4 0.1 0.1
0.5 0.1 0.1
0.4 0.2 0.1
0.5 0.2 0.1
0.4 0.1 0.2
0.5 0.1 0.2
0.4 0.2 0.2
0.5 0.2 0.2
0.5 0.1 0.1
0.6 0.1 0.1
[...]
POINT_DATA 8000
VECTORS u double
0 0 0
0 0 0
0 0 0
0 0 0
0.000110207 1.67097e-05 7.42339e-05
0.000103864 5.25687e-05 7.12211e-05
8.66816e-05 1.1379e-05 5.89328e-05
7.87904e-05 3.22056e-05 5.32153e-05
0 0 0
0 0 0
0 0 0
0 0 0
0.000103864 5.25687e-05 7.12211e-05
0.000100551 9.0539e-05 0.000114713
7.87904e-05 3.22056e-05 5.32153e-05
7.35361e-05 5.67602e-05 8.38258e-05
0 0 0
0 0 0
0 0 0
0 0 0
0.000100551 9.0539e-05 0.000114713
9.29783e-05 0.000130929 0.000166148
7.35361e-05 5.67602e-05 8.38258e-05
6.49385e-05 8.27914e-05 0.000121306
0 0 0
0 0 0
0 0 0
0 0 0
9.29783e-05 0.000130929 0.000166148
7.94166e-05 0.000172278 0.000219786
6.49385e-05 8.27914e-05 0.000121306
5.11384e-05 0.000109235 0.000160851
0 0 0
0 0 0
0 0 0
0 0 0
7.94166e-05 0.000172278 0.000219786
5.90785e-05 0.000213481 0.000274299
5.11384e-05 0.000109235 0.000160851
3.11523e-05 0.000135375 0.000201489
0 0 0
0 0 0
0 0 0
0 0 0
5.90785e-05 0.000213481 0.000274299
3.05346e-05 0.000253693 0.000329464
3.11523e-05 0.000135375 0.000201489
3.43816e-06 0.000160623 0.000243296
0 0 0
0 0 0
0 0 0
0 0 0
3.05346e-05 0.000253693 0.000329464
-9.13035e-06 0.000292019 0.000385838
3.43816e-06 0.000160623 0.000243296
-3.49907e-05 0.000184361 0.000287137
0 0 0
0 0 0
0 0 0
0 0 0
-9.13035e-06 0.000292019 0.000385838
-6.6052e-05 0.000327083 0.000445755
-3.49907e-05 0.000184361 0.000287137
-9.0484e-05 0.000205877 0.000335676
0 0 0
0 0 0
0 0 0
0 0 0
-6.6052e-05 0.000327083 0.000445755
-0.000153838 0.000355672 0.000518202
-9.0484e-05 0.000205877 0.000335676
-0.000178257 0.000224842 0.000398404
0 0 0
0 0 0
0 0 0
0 0 0
-0.000153838 0.000355672 0.000518202
-0.000281861 0.000375359 0.000649301
-0.000178257 0.000224842 0.000398404
-0.000321559 0.000246323 0.00053049
0 0 0
0 0 0
0 0 0
0 0 0
8.66816e-05 1.1379e-05 5.89328e-05
7.87904e-05 3.22056e-05 5.32153e-05
7.30986e-05 6.86888e-06 4.66537e-05
6.5955e-05 1.98167e-05 4.65814e-05
0 0 0
0 0 0
0 0 0
0 0 0
7.87904e-05 3.22056e-05 5.32153e-05
7.35361e-05 5.67602e-05 8.38258e-05
6.5955e-05 1.98167e-05 4.65814e-05
6.00404e-05 3.57378e-05 7.63581e-05
0 0 0
0 0 0
0 0 0
0 0 0
7.35361e-05 5.67602e-05 8.38258e-05
6.49385e-05 8.27914e-05 0.000121306
6.00404e-05 3.57378e-05 7.63581e-05
5.08677e-05 5.26123e-05 0.000111492
0 0 0
0 0 0
0 0 0
0 0 0
6.49385e-05 8.27914e-05 0.000121306
5.11384e-05 0.000109235 0.000160851
5.08677e-05 5.26123e-05 0.000111492
3.67587e-05 6.96166e-05 0.000148279
0 0 0
0 0 0
0 0 0
0 0 0
5.11384e-05 0.000109235 0.000160851
3.11523e-05 0.000135375 0.000201489
3.67587e-05 6.96166e-05 0.000148279
1.66581e-05 8.62639e-05 0.000186044
0 0 0
0 0 0
0 0 0
0 0 0
3.11523e-05 0.000135375 0.000201489
3.43816e-06 0.000160623 0.000243296
1.66581e-05 8.62639e-05 0.000186044
-1.11332e-05 0.000102168 0.00022496
0 0 0
0 0 0
0 0 0
0 0 0
3.43816e-06 0.000160623 0.000243296
-3.49907e-05 0.000184361 0.000287137
-1.11332e-05 0.000102168 0.00022496
-4.98756e-05 0.000117009 0.000265928
0 0 0
0 0 0
0 0 0
0 0 0
-3.49907e-05 0.000184361 0.000287137
-9.0484e-05 0.000205877 0.000335676
-4.98756e-05 0.000117009 0.000265928
-0.000106421 0.000130724 0.000311729
0 0 0
0 0 0
0 0 0
0 0 0
-9.0484e-05 0.000205877 0.000335676
-0.000178257 0.000224842 0.000398404
-0.000106421 0.000130724 0.000311729
-0.000196682 0.000144203 0.00037292
0 0 0
0 0 0
0 0 0
0 0 0
-0.000178257 0.000224842 0.000398404
-0.000321559 0.000246323 0.00053049
-0.000196682 0.000144203 0.00037292
-0.000344523 0.000159734 0.000513815
0 0 0
0 0 0
0 0 0
0 0 0
7.30986e-05 6.86888e-06 4.66537e-05
6.5955e-05 1.98167e-05 4.65814e-05
6.51135e-05 4.17315e-06 3.88521e-05
5.90763e-05 1.17831e-05 4.28407e-05
0 0 0
0 0 0
0 0 0
0 0 0
6.5955e-05 1.98167e-05 4.65814e-05
6.00404e-05 3.57378e-05 7.63581e-05
5.90763e-05 1.17831e-05 4.28407e-05
5.29483e-05 2.14453e-05 7.32914e-05
0 0 0
0 0 0
0 0 0
0 0 0
6.00404e-05 3.57378e-05 7.63581e-05
5.08677e-05 5.26123e-05 0.000111492
5.29483e-05 2.14453e-05 7.32914e-05
4.3343e-05 3.17647e-05 0.000108087
0 0 0
0 0 0
0 0 0
0 0 0
5.08677e-05 5.26123e-05 0.000111492
3.67587e-05 6.96166e-05 0.000148279
4.3343e-05 3.17647e-05 0.000108087
2.88638e-05 4.21272e-05 0.00014417
0 0 0
0 0 0
0 0 0
0 0 0
3.67587e-05 6.96166e-05 0.000148279
1.66581e-05 8.62639e-05 0.000186044
2.88638e-05 4.21272e-05 0.00014417
8.4271e-06 5.22058e-05 0.000181081
0 0 0
0 0 0
0 0 0
0 0 0
1.66581e-05 8.62639e-05 0.000186044
-1.11332e-05 0.000102168 0.00022496
8.4271e-06 5.22058e-05 0.000181081
-1.97829e-05 6.17812e-05 0.000219071
0 0 0
0 0 0
0 0 0
0 0 0
-1.11332e-05 0.000102168 0.00022496
-4.98756e-05 0.000117009 0.000265928
-1.97829e-05 6.17812e-05 0.000219071
-5.91721e-05 7.07504e-05 0.0002591
0 0 0
0 0 0
0 0 0
0 0 0
-4.98756e-05 0.000117009 0.000265928
-0.000106421 0.000130724 0.000311729
-5.91721e-05 7.07504e-05 0.0002591
-0.000116673 7.9298e-05 0.000304128
0 0 0
0 0 0
0 0 0
0 0 0
-0.000106421 0.000130724 0.000311729
-0.000196682 0.000144203 0.00037292
-0.000116673 7.9298e-05 0.000304128
-0.000208076 8.81461e-05 0.000365602
0 0 0
0 0 0
0 0 0
0 0 0
-0.000196682 0.000144203 0.00037292
-0.000344523 0.000159734 0.000513815
-0.000208076 8.81461e-05 0.000365602
-0.000357834 9.79355e-05 0.000513133
0 0 0
0 0 0
0 0 0
0 0 0
6.51135e-05 4.17315e-06 3.88521e-05
5.90763e-05 1.17831e-05 4.28407e-05
6.08825e-05 2.01988e-06 3.45292e-05
5.56225e-05 5.55591e-06 4.079e-05
0 0 0
0 0 0
0 0 0
0 0 0
5.90763e-05 1.17831e-05 4.28407e-05
5.29483e-05 2.14453e-05 7.32914e-05
5.56225e-05 5.55591e-06 4.079e-05
4.9453e-05 1.01297e-05 7.18321e-05
0 0 0
0 0 0
0 0 0
0 0 0
5.29483e-05 2.14453e-05 7.32914e-05
4.3343e-05 3.17647e-05 0.000108087
4.9453e-05 1.01297e-05 7.18321e-05
3.95799e-05 1.50487e-05 0.000106674
0 0 0
0 0 0
0 0 0
0 0 0
4.3343e-05 3.17647e-05 0.000108087
2.88638e-05 4.21272e-05 0.00014417
3.95799e-05 1.50487e-05 0.000106674
2.48154e-05 1.99857e-05 0.000142577
0 0 0
0 0 0
0 0 0
0 0 0
2.88638e-05 4.21272e-05 0.00014417
8.4271e-06 5.22058e-05 0.000181081
2.48154e-05 1.99857e-05 0.000142577
4.08216e-06 2.47732e-05 0.000179206
0 0 0
0 0 0
0 0 0
0 0 0
8.4271e-06 5.22058e-05 0.000181081
-1.97829e-05 6.17812e-05 0.000219071
4.08216e-06 2.47732e-05 0.000179206
-2.44859e-05 2.93155e-05 0.000216866
0 0 0
0 0 0
0 0 0
0 0 0
-1.97829e-05 6.17812e-05 0.000219071
-5.91721e-05 7.07504e-05 0.0002591
-2.44859e-05 2.93155e-05 0.000216866
-6.43285e-05 3.3598e-05 0.000256567
0 0 0
0 0 0
0 0 0
0 0 0
-5.91721e-05 7.07504e-05 0.0002591
-0.000116673 7.9298e-05 0.000304128
-6.43285e-05 3.3598e-05 0.000256567
-0.000122331 3.77622e-05 0.000301406
0 0 0
0 0 0
0 0 0
0 0 0
-0.000116673 7.9298e-05 0.000304128
-0.000208076 8.81461e-05 0.000365602
-0.000122331 3.77622e-05 0.000301406
-0.000214235 4.21443e-05 0.000363357
0 0 0
0 0 0
0 0 0
0 0 0
-0.000208076 8.81461e-05 0.000365602
-0.000357834 9.79355e-05 0.000513133
-0.000214235 4.21443e-05 0.000363357
-0.000365088 4.68622e-05 0.000514721
0 0 0
0 0 0
0 0 0
0 0 0
6.08825e-05 2.01988e-06 3.45292e-05
5.56225e-05 5.55591e-06 4.079e-05
5.95536e-05 -1.2278e-17 3.31412e-05
5.45642e-05 -1.36133e-17 4.01285e-05
0 0 0
0 0 0
0 0 0
0 0 0
5.56225e-05 5.55591e-06 4.079e-05
4.9453e-05 1.01297e-05 7.18321e-05
5.45642e-05 -1.36133e-17 4.01285e-05
4.83935e-05 -1.37999e-17 7.13834e-05
0 0 0
0 0 0
0 0 0
0 0 0
4.9453e-05 1.01297e-05 7.18321e-05
3.95799e-05 1.50487e-05 0.000106674
4.83935e-05 -1.37999e-17 7.13834e-05
3.84306e-05 -1.35027e-17 0.000106267
0 0 0
0 0 0
0 0 0
0 0 0
3.95799e-05 1.50487e-05 0.000106674
2.48154e-05 1.99857e-05 0.000142577
3.84306e-05 -1.35027e-17 0.000106267
2.35613e-05 -1.29591e-17 0.000142137
0 0 0
0 0 0
0 0 0
0 0 0
2.48154e-05 1.99857e-05 0.000142577
4.08216e-06 2.47732e-05 0.000179206
2.35613e-05 -1.29591e-17 0.000142137
2.71517e-06 -1.22315e-17 0.000178698
0 0 0
0 0 0
0 0 0
0 0 0
4.08216e-06 2.47732e-05 0.000179206
-2.44859e-05 2.93155e-05 0.000216866
2.71517e-06 -1.22315e-17 0.000178698
-2.59851e-05 -1.14554e-17 0.000216274
0 0 0
0 0 0
0 0 0
0 0 0
-2.44859e-05 2.93155e-05 0.000216866
-6.43285e-05 3.3598e-05 0.000256567
-2.59851e-05 -1.14554e-17 0.000216274
-6.5981e-05 -1.03975e-17 0.000255895
0 0 0
0 0 0
0 0 0
0 0 0
-6.43285e-05 3.3598e-05 0.000256567
-0.000122331 3.77622e-05 0.000301406
-6.5981e-05 -1.03975e-17 0.000255895
-0.000124134 -8.90524e-18 0.000300705
0 0 0
0 0 0
0 0 0
0 0 0
-0.000122331 3.77622e-05 0.000301406
-0.000214235 4.21443e-05 0.000363357
-0.000124134 -8.90524e-18 0.000300705
-0.000216186 -6.70445e-18 0.000362849
0 0 0
0 0 0
0 0 0
0 0 0
-0.000214235 4.21443e-05 0.000363357
-0.000365088 4.68622e-05 0.000514721
-0.000216186 -6.70445e-18 0.000362849
-0.000367408 -2.93274e-18 0.000515456
0 0 0
0 0 0
0 0 0
0 0 0
5.95536e-05 -1.2278e-17 3.31412e-05
5.45642e-05 -1.36133e-17 4.01285e-05
6.08825e-05 -2.01988e-06 3.45292e-05
5.56225e-05 -5.55591e-06 4.079e-05
0 0 0
0 0 0
0 0 0
0 0 0
5.45642e-05 -1.36133e-17 4.01285e-05
4.83935e-05 -1.37999e-17 7.13834e-05
5.56225e-05 -5.55591e-06 4.079e-05
4.9453e-05 -1.01297e-05 7.18321e-05
0 0 0
0 0 0
0 0 0
0 0 0
4.83935e-05 -1.37999e-17 7.13834e-05
3.84306e-05 -1.35027e-17 0.000106267
4.9453e-05 -1.01297e-05 7.18321e-05
3.95799e-05 -1.50487e-05 0.000106674
0 0 0
0 0 0
0 0 0
0 0 0
3.84306e-05 -1.35027e-17 0.000106267
2.35613e-05 -1.29591e-17 0.000142137
3.95799e-05 -1.50487e-05 0.000106674
2.48154e-05 -1.99857e-05 0.000142577
0 0 0
0 0 0
0 0 0
0 0 0
2.35613e-05 -1.29591e-17 0.000142137
2.71517e-06 -1.22315e-17 0.000178698
2.48154e-05 -1.99857e-05 0.000142577
4.08216e-06 -2.47732e-05 0.000179206
0 0 0
0 0 0
0 0 0
0 0 0
2.71517e-06 -1.22315e-17 0.000178698
-2.59851e-05 -1.14554e-17 0.000216274
4.08216e-06 -2.47732e-05 0.000179206
-2.44859e-05 -2.93155e-05 0.000216866
0 0 0
0 0 0
0 0 0
0 0 0
-2.59851e-05 -1.14554e-17 0.000216274
-6.5981e-05 -1.03975e-17 0.000255895
-2.44859e-05 -2.93155e-05 0.000216866
-6.43285e-05 -3.3598e-05 0.000256567
0 0 0
0 0 0
0 0 0
0 0 0
-6.5981e-05 -1.03975e-17 0.000255895
-0.000124134 -8.90524e-18 0.000300705
-6.43285e-05 -3.3598e-05 0.000256567
-0.000122331 -3.77622e-05 0.000301406
0 0 0
0 0 0
0 0 0
0 0 0
-0.000124134 -8.90524e-18 0.000300705
-0.000216186 -6.70445e-18 0.000362849
-0.000122331 -3.77622e-05 0.000301406
-0.000214235 -4.21443e-05 0.000363357
0 0 0
0 0 0
0 0 0
0 0 0
-0.000216186 -6.70445e-18 0.000362849
-0.000367408 -2.93274e-18 0.000515456
-0.000214235 -4.21443e-05 0.000363357
-0.000365088 -4.68622e-05 0.000514721
0 0 0
0 0 0
0 0 0
0 0 0
6.08825e-05 -2.01988e-06 3.45292e-05
5.56225e-05 -5.55591e-06 4.079e-05
6.51135e-05 -4.17315e-06 3.88521e-05
5.90763e-05 -1.17831e-05 4.28407e-05
0 0 0
0 0 0
0 0 0
0 0 0
5.56225e-05 -5.55591e-06 4.079e-05
4.9453e-05 -1.01297e-05 7.18321e-05
5.90763e-05 -1.17831e-05 4.28407e-05
5.29483e-05 -2.14453e-05 7.32914e-05
0 0 0
0 0 0
0 0 0
0 0 0
4.9453e-05 -1.01297e-05 7.18321e-05
3.95799e-05 -1.50487e-05 0.000106674
5.29483e-05 -2.14453e-05 7.32914e-05
4.3343e-05 -3.17647e-05 0.000108087
0 0 0
0 0 0
0 0 0
0 0 0
3.95799e-05 -1.50487e-05 0.000106674
2.48154e-05 -1.99857e-05 0.000142577
4.3343e-05 -3.17647e-05 0.000108087
2.88638e-05 -4.21272e-05 0.00014417
0 0 0
0 0 0
0 0 0
0 0 0
2.48154e-05 -1.99857e-05 0.000142577
4.08216e-06 -2.47732e-05 0.000179206
2.88638e-05 -4.21272e-05 0.00014417
8.4271e-06 -5.22058e-05 0.000181081
0 0 0
0 0 0
0 0 0
0 0 0
4.08216e-06 -2.47732e-05 0.000179206
-2.44859e-05 -2.93155e-05 0.000216866
8.4271e-06 -5.22058e-05 0.000181081
-1.97829e-05 -6.17812e-05 0.000219071
0 0 0
0 0 0
0 0 0
0 0 0
-2.44859e-05 -2.93155e-05 0.000216866
-6.43285e-05 -3.3598e-05 0.000256567
-1.97829e-05 -6.17812e-05 0.000219071
-5.91721e-05 -7.07504e-05 0.0002591
0 0 0
0 0 0
0 0 0
0 0 0
-6.43285e-05 -3.3598e-05 0.000256567
-0.000122331 -3.77622e-05 0.000301406
-5.91721e-05 -7.07504e-05 0.0002591
-0.000116673 -7.9298e-05 0.000304128
0 0 0
0 0 0
0 0 0
0 0 0
-0.000122331 -3.77622e-05 0.000301406
-0.000214235 -4.21443e-05 0.000363357
-0.000116673 -7.9298e-05 0.000304128
-0.000208076 -8.81461e-05 0.000365602
0 0 0
0 0 0
0 0 0
0 0 0
-0.000214235 -4.21443e-05 0.000363357
-0.000365088 -4.68622e-05 0.000514721
-0.000208076 -8.81461e-05 0.000365602
-0.000357834 -9.79355e-05 0.000513133
0 0 0
0 0 0
0 0 0
0 0 0
6.51135e-05 -4.17315e-06 3.88521e-05
5.90763e-05 -1.17831e-05 4.28407e-05
7.30986e-05 -6.86888e-06 4.66537e-05
6.5955e-05 -1.98167e-05 4.65814e-05
0 0 0
0 0 0
0 0 0
0 0 0
5.90763e-05 -1.17831e-05 4.28407e-05
5.29483e-05 -2.14453e-05 7.32914e-05
6.5955e-05 -1.98167e-05 4.65814e-05
6.00404e-05 -3.57378e-05 7.63581e-05
0 0 0
0 0 0
0 0 0
0 0 0
5.29483e-05 -2.14453e-05 7.32914e-05
4.3343e-05 -3.17647e-05 0.000108087
6.00404e-05 -3.57378e-05 7.63581e-05
5.08677e-05 -5.26123e-05 0.000111492
0 0 0
0 0 0
0 0 0
0 0 0
4.3343e-05 -3.17647e-05 0.000108087
2.88638e-05 -4.21272e-05 0.00014417
5.08677e-05 -5.26123e-05 0.000111492
3.67587e-05 -6.96166e-05 0.000148279
0 0 0
0 0 0
0 0 0
0 0 0
2.88638e-05 -4.21272e-05 0.00014417
8.4271e-06 -5.22058e-05 0.000181081
3.67587e-05 -6.96166e-05 0.000148279
1.66581e-05 -8.62639e-05 0.000186044
0 0 0
0 0 0
0 0 0
0 0 0
8.4271e-06 -5.22058e-05 0.000181081
-1.97829e-05 -6.17812e-05 0.000219071
1.66581e-05 -8.62639e-05 0.000186044
-1.11332e-05 -0.000102168 0.00022496
0 0 0
0 0 0
0 0 0
0 0 0
-1.97829e-05 -6.17812e-05 0.000219071
-5.91721e-05 -7.07504e-05 0.0002591
-1.11332e-05 -0.000102168 0.00022496
-4.98756e-05 -0.000117009 0.000265928
0 0 0
0 0 0
0 0 0
0 0 0
-5.91721e-05 -7.07504e-05 0.0002591
-0.000116673 -7.9298e-05 0.000304128
-4.98756e-05 -0.000117009 0.000265928
-0.000106421 -0.000130724 0.000311729
0 0 0
0 0 0
0 0 0
0 0 0
-0.000116673 -7.9298e-05 0.000304128
-0.000208076 -8.81461e-05 0.000365602
-0.000106421 -0.000130724 0.000311729
-0.000196682 -0.000144203 0.00037292
0 0 0
0 0 0
0 0 0
0 0 0
-0.000208076 -8.81461e-05 0.000365602
-0.000357834 -9.79355e-05 0.000513133
-0.000196682 -0.000144203 0.00037292
-0.000344523 -0.000159734 0.000513815
0 0 0
0 0 0
0 0 0
0 0 0
7.30986e-05 -6.86888e-06 4.66537e-05
6.5955e-05 -1.98167e-05 4.65814e-05
8.66816e-05 -1.1379e-05 5.89328e-05
7.87904e-05 -3.22056e-05 5.32153e-05
0 0 0
0 0 0
0 0 0
0 0 0
6.5955e-05 -1.98167e-05 4.65814e-05
6.00404e-05 -3.57378e-05 7.63581e-05
7.87904e-05 -3.22056e-05 5.32153e-05
7.35361e-05 -5.67602e-05 8.38258e-05
0 0 0
0 0 0
0 0 0
0 0 0
6.00404e-05 -3.57378e-05 7.63581e-05
5.08677e-05 -5.26123e-05 0.000111492
7.35361e-05 -5.67602e-05 8.38258e-05
6.49385e-05 -8.27914e-05 0.000121306
0 0 0
0 0 0
0 0 0
0 0 0
5.08677e-05 -5.26123e-05 0.000111492
3.67587e-05 -6.96166e-05 0.000148279
6.49385e-05 -8.27914e-05 0.000121306
5.11384e-05 -0.000109235 0.000160851
0 0 0
0 0 0
0 0 0
0 0 0
3.67587e-05 -6.96166e-05 0.000148279
1.66581e-05 -8.62639e-05 0.000186044
5.11384e-05 -0.000109235 0.000160851
3.11523e-05 -0.000135375 0.000201489
0 0 0
0 0 0
0 0 0
0 0 0
1.66581e-05 -8.62639e-05 0.000186044
-1.11332e-05 -0.000102168 0.00022496
3.11523e-05 -0.000135375 0.000201489
3.43816e-06 -0.000160623 0.000243296
0 0 0
0 0 0
0 0 0
0 0 0
-1.11332e-05 -0.000102168 0.00022496
-4.98756e-05 -0.000117009 0.000265928
3.43816e-06 -0.000160623 0.000243296
-3.49907e-05 -0.000184361 0.000287137
0 0 0
0 0 0
0 0 0
0 0 0
-4.98756e-05 -0.000117009 0.000265928
-0.000106421 -0.000130724 0.000311729
-3.49907e-05 -0.000184361 0.000287137
-9.0484e-05 -0.000205877 0.000335676
0 0 0
0 0 0
0 0 0
0 0 0
-0.000106421 -0.000130724 0.000311729
-0.000196682 -0.000144203 0.00037292
-9.0484e-05 -0.000205877 0.000335676
-0.000178257 -0.000224842 0.000398404
0 0 0
0 0 0
0 0 0
0 0 0
-0.000196682 -0.000144203 0.00037292
-0.000344523 -0.000159734 0.000513815
-0.000178257 -0.000224842 0.000398404
-0.000321559 -0.000246323 0.00053049
0 0 0
0 0 0
0 0 0
0 0 0
8.66816e-05 -1.1379e-05 5.89328e-05
7.87904e-05 -3.22056e-05 5.32153e-05
0.000110207 -1.67097e-05 7.42339e-05
0.000103864 -5.25687e-05 7.12211e-05
0 0 0
0 0 0
0 0 0
0 0 0
7.87904e-05 -3.22056e-05 5.32153e-05
7.35361e-05 -5.67602e-05 8.38258e-05
0.000103864 -5.25687e-05 7.12211e-05
0.000100551 -9.0539e-05 0.000114713
0 0 0
0 0 0
0 0 0
0 0 0
7.35361e-05 -5.67602e-05 8.38258e-05
6.49385e-05 -8.27914e-05 0.000121306
0.000100551 -9.0539e-05 0.000114713
9.29783e-05 -0.000130929 0.000166148
0 0 0
0 0 0
0 0 0
0 0 0
6.49385e-05 -8.27914e-05 0.000121306
5.11384e-05 -0.000109235 0.000160851
9.29783e-05 -0.000130929 0.000166148
7.94166e-05 -0.000172278 0.000219786
0 0 0
0 0 0
0 0 0
0 0 0
5.11384e-05 -0.000109235 0.000160851
3.11523e-05 -0.000135375 0.000201489
7.94166e-05 -0.000172278 0.000219786
5.90785e-05 -0.000213481 0.000274299
0 0 0
0 0 0
0 0 0
0 0 0
3.11523e-05 -0.000135375 0.000201489
3.43816e-06 -0.000160623 0.000243296
5.90785e-05 -0.000213481 0.000274299
3.05346e-05 -0.000253693 0.000329464
0 0 0
0 0 0
0 0 0
0 0 0
3.43816e-06 -0.000160623 0.000243296
-3.49907e-05 -0.000184361 0.000287137
3.05346e-05 -0.000253693 0.000329464
-9.13035e-06 -0.000292019 0.000385838
0 0 0
0 0 0
0 0 0
0 0 0
-3.49907e-05 -0.000184361 0.000287137
-9.0484e-05 -0.000205877 0.000335676
-9.13035e-06 -0.000292019 0.000385838
-6.6052e-05 -0.000327083 0.000445755
0 0 0
0 0 0
0 0 0
0 0 0
-9.0484e-05 -0.000205877 0.000335676
-0.000178257 -0.000224842 0.000398404
-6.6052e-05 -0.000327083 0.000445755
-0.000153838 -0.000355672 0.000518202
0 0 0
0 0 0
0 0 0
0 0 0
-0.000178257 -0.000224842 0.000398404
-0.000321559 -0.000246323 0.00053049
-0.000153838 -0.000355672 0.000518202
-0.000281861 -0.000375359 0.000649301
0.000110207 1.67097e-05 7.42339e-05
0.000103864 5.25687e-05 7.12211e-05
8.66816e-05 1.1379e-05 5.89328e-05
7.87904e-05 3.22056e-05 5.32153e-05
0.000135145 1.4874e-05 7.42808e-05
0.000131026 6.95308e-05 0.000121966
9.33986e-05 1.67734e-05 6.24474e-05
8.87597e-05 5.29759e-05 0.000109108
0.000103864 5.25687e-05 7.12211e-05
0.000100551 9.0539e-05 0.000114713
7.87904e-05 3.22056e-05 5.32153e-05
7.35361e-05 5.67602e-05 8.38258e-05
0.000131026 6.95308e-05 0.000121966
0.000118898 0.000126845 0.00020187
8.87597e-05 5.29759e-05 0.000109108
7.52851e-05 9.4473e-05 0.00018009
0.000100551 9.0539e-05 0.000114713
9.29783e-05 0.000130929 0.000166148
7.35361e-05 5.67602e-05 8.38258e-05
6.49385e-05 8.27914e-05 0.000121306
0.000118898 0.000126845 0.00020187
0.000100074 0.000185563 0.000293583
7.52851e-05 9.4473e-05 0.00018009
5.56715e-05 0.000138079 0.00026171
9.29783e-05 0.000130929 0.000166148
7.94166e-05 0.000172278 0.000219786
6.49385e-05 8.27914e-05 0.000121306
5.11384e-05 0.000109235 0.000160851
0.000100074 0.000185563 0.000293583
7.22763e-05 0.000244571 0.000389715
5.56715e-05 0.000138079 0.00026171
2.7885e-05 0.000182083 0.000347701
7.94166e-05 0.000172278 0.000219786
5.90785e-05 0.000213481 0.000274299
5.11384e-05 0.000109235 0.000160851
3.11523e-05 0.000135375 0.000201489
7.22763e-05 0.000244571 0.000389715
3.34444e-05 0.000302702 0.000488422
2.7885e-05 0.000182083 0.000347701
-1.01877e-05 0.00022533 0.000436515
5.90785e-05 0.000213481 0.000274299
3.05346e-05 0.000253693 0.000329464
3.11523e-05 0.000135375 0.000201489
3.43816e-06 0.000160623 0.000243296
3.34444e-05 0.000302702 0.000488422
-1.88796e-05 0.000358779 0.000589956
-1.01877e-05 0.00022533 0.000436515
-6.11163e-05 0.000266832 0.000528555
3.05346e-05 0.000253693 0.000329464
-9.13035e-06 0.000292019 0.000385838
3.43816e-06 0.000160623 0.000243296
-3.49907e-05 0.000184361 0.000287137
-1.88796e-05 0.000358779 0.000589956
-8.82691e-05 0.000411459 0.000696188
-6.11163e-05 0.000266832 0.000528555
-0.000128703 0.000305598 0.000625768
-9.13035e-06 0.000292019 0.000385838
-6.6052e-05 0.000327083 0.000445755
-3.49907e-05 0.000184361 0.000287137
-9.0484e-05 0.000205877 0.000335676
-8.82691e-05 0.000411459 0.000696188
-0.000179635 0.000459087 0.000811666
-0.000128703 0.000305598 0.000625768
-0.000218669 0.00034076 0.000732651
-6.6052e-05 0.000327083 0.000445755
-0.000153838 0.000355672 0.000518202
-9.0484e-05 0.000205877 0.000335676
-0.000178257 0.000224842 0.000398404
-0.000179635 0.000459087 0.000811666
-0.000295981 0.000500679 0.000945209
-0.000218669 0.00034076 0.000732651
-0.000337114 0.000372898 0.000858379
-0.000153838 0.000355672 0.000518202
-0.000281861 0.000375359 0.000649301
-0.000178257 0.000224842 0.000398404
-0.000321559 0.000246323 0.00053049
-0.000295981 0.000500679 0.000945209
-0.000424785 0.000545056 0.00109281
-0.000337114 0.000372898 0.000858379
-0.000476811 0.000410234 0.00100473