# vtk DataFile Version 3.0
#This file was generated by the deal.II library on 2018/12/3 at 16:29:49
ASCII
DATASET UNSTRUCTURED_GRID

POINTS 8000 double
0 0 0
0.1 0 0
0 0.1 0
0.1 0.1 0
0 0 0.1
0.1 0 0.1
0 0.1 0.1
0.1 0.1 0.1
0.1 0 0
0.2 0 0
0.1 0.1 0
0.2 0.1 0
0.1 0 0.1
0.2 0 0.1
0.1 0.1 0.1
0.2 0.1 0.1
0.2 0 0
0.3 0 0
0.2 0.1 0
0.3 0.1 0
0.2 0 0.1
0.3 0 0.1
0.2 0.1 0.1
0.3 0.1 0.1
0.3 0 0
0.4 0 0
0.3 0.1 0
0.4 0.1 0
0.3 0 0.1
0.4 0 0.1
0.3 0.1 0.1
0.4 0.1 0.1
0.4 0 0
0.5 0 0
0.4 0.1 0
0.5 0.1 0
0.4 0 0.1
0.5 0 0.1
0.4 0.1 0.1
0.5 0.1 0.1
0.5 0 0
0.6 0 0
0.5 0.1 0
0.6 0.1 0
0.5 0 0.1
0.6 0 0.1
0.5 0.1 0.1
0.6 0.1 0.1
0.6 0 0
0.7 0 0
0.6 0.1 0
0.7 0.1 0
0.6 0 0.1
0.7 0 0.1
0.6 0.1 0.1
0.7 0.1 0.1
0.7 0 0
0.8 0 0
0.7 0.1 0
0.8 0.1 0
0.7 0 0.1
0.8 0 0.1
0.7 0.1 0.1
0.8 0.1 0.1
0.8 0 0
0.9 0 0
0.8 0.1 0
0.9 0.1 0
0.8 0 0.1
0.9 0 0.1
0.8 0.1 0.1
0.9 0.1 0.1
0.9 0 0
1 0 0
0.9 0.1 0
1 0.1 0
0.9 0 0.1
1 0 0.1
0.9 0.1 0.1
1 0.1 0.1
0 0.1 0
0.1 0.1 0
0 0.2 0
0.1 0.2 0
0 0.1 0.1
0.1 0.1 0.1
0 0.2 0.1
0.1 0.2 0.1
0.1 0.1 0
0.2 0.1 0
0.1 0.2 0
0.2 0.2 0
0.1 0.1 0.1
0.2 0.1 0.1
0.1 0.2 0.1
0.2 0.2 0.1
0.2 0.1 0
0.3 0.1 0
0.2 0.2 0
0.3 0.2 0
0.2 0.1 0.1
0.3 0.1 0.1
0.2 0.2 0.1
0.3 0.2 0.1
0.3 0.1 0
0.4 0.1 0
0.3 0.2 0
0.4 0.2 0
0.3 0.1 0.1
0.4 0.1 0.1
0.3 0.2 0.1
0.4 0.2 0.1
0.4 0.1 0
0.5 0.1 0
0.4 0.2 0
0.5 0.2 0
0.4 0.1 0.1
0.5 0.1 0.1
0.4 0.2 0.1
0.5 0.2 0.1
0.5 0.1 0
0.6 0.1 0
0.5 0.2 0
0.6 0.2 0
0.5 0.1 0.1
0.6 0.1 0.1
0.5 0.2 0.1
0.6 0.2 0.1
0.6 0.1 0
0.7 0.1 0
0.6 0.2 0
0.7 0.2 0
0.6 0.1 0.1
0.7 0.1 0.1
0.6 0.2 0.1
0.7 0.2 0.1
0.7 0.1 0
0.8 0.1 0
0.7 0.2 0
0.8 0.2 0
0.7 0.1 0.1
0.8 0.1 0.1
0.7 0.2 0.1
0.8 0.2 0.1
0.8 0.1 0
0.9 0.1 0
0.8 0.2 0
0.9 0.2 0
0.8 0.1 0.1
0.9 0.1 0.1
0.8 0.2 0.1
0.9 0.2 0.1
0.9 0.1 0
1 0.1 0
0.9 0.2 0
1 0.2 0
0.9 0.1 0.1
1 0.1 0.1
0.9 0.2 0.1
1 0.2 0.1
0 0.2 0
0.1 0.2 0
0 0.3 0
0.1 0.3 0
0 0.2 0.1
0.1 0.2 0.1
0 0.3 0.1
0.1 0.3 0.1
0.1 0.2 0
0.2 0.2 0
0.1 0.3 0
0.2 0.3 0
0.1 0.2 0.1
0.2 0.2 0.1
0.1 0.3 0.1
0.2 0.3 0.1
0.2 0.2 0
0.3 0.2 0
0.2 0.3 0
0.3 0.3 0
0.2 0.2 0.1
0.3 0.2 0.1
0.2 0.3 0.1
0.3 0.3 0.1
0.3 0.2 0
0.4 0.2 0
0.3 0.3 0
0.4 0.3 0
0.3 0.2 0.1
0.4 0.2 0.1
0.3 0.3 0.1
0.4 0.3 0.1
0.4 0.2 0
0.5 0.2 0
0.4 0.3 0
0.5 0.3 0
0.4 0.2 0.1
0.5 0.2 0.1
0.4 0.3 0.1
0.5 0.3 0.1
0.5 0.2 0
0.6 0.2 0
0.5 0.3 0
0.6 0.3 0
0.5 0.2 0.1
0.6 0.2 0.1
0.5 0.3 0.1
0.6 0.3 0.1
0.6 0.2 0
0.7 0.2 0
0.6 0.3 0
0.7 0.3 0
0.6 0.2 0.1
0.7 0.2 0.1
0.6 0.3 0.1
0.7 0.3 0.1
0.7 0.2 0
0.8 0.2 0
0.7 0.3 0
0.8 0.3 0
0.7 0.2 0.1
0.8 0.2 0.1
0.7 0.3 0.1
0.8 0.3 0.1
0.8 0.2 0
0.9 0.2 0
0.8 0.3 0
0.9 0.3 0
0.8 0.2 0.1
0.9 0.2 0.1
0.8 0.3 0.1
0.9 0.3 0.1
0.9 0.2 0
1 0.2 0
0.9 0.3 0
1 0.3 0
0.9 0.2 0.1
1 0.2 0.1
0.9 0.3 0.1
1 0.3 0.1
0 0.3 0
0.1 0.3 0
0 0.4 0
0.1 0.4 0
0 0.3 0.1
0.1 0.3 0.1
0 0.4 0.1
0.1 0.4 0.1
0.1 0.3 0
0.2 0.3 0
0.1 0.4 0
0.2 0.4 0
0.1 0.3 0.1
0.2 0.3 0.1
0.1 0.4 0.1
0.2 0.4 0.1
0.2 0.3 0
0.3 0.3 0
0.2 0.4 0
0.3 0.4 0
0.2 0.3 0.1
0.3 0.3 0.1
0.2 0.4 0.1
0.3 0.4 0.1
0.3 0.3 0
0.4 0.3 0
0.3 0.4 0
0.4 0.4 0
0.3 0.3 0.1
0.4 0.3 0.1
0.3 0.4 0.1
0.4 0.4 0.1
0.4 0.3 0
0.5 0.3 0
0.4 0.4 0
0.5 0.4 0
0.4 0.3 0.1
0.5 0.3 0.1
0.4 0.4 0.1
0.5 0.4 0.1
0.5 0.3 0
0.6 0.3 0
0.5 0.4 0
0.6 0.4 0
0.5 0.3 0.1
0.6 0.3 0.1
0.5 0.4 0.1
0.6 0.4 0.1
0.6 0.3 0
0.7 0.3 0
0.6 0.4 0
0.7 0.4 0
0.6 0.3 0.1
0.7 0.3 0.1
0.6 0.4 0.1
0.7 0.4 0.1
0.7 0.3 0
0.8 0.3 0
0.7 0.4 0
0.8 0.4 0
0.7 0.3 0.1
0.8 0.3 0.1
0.7 0.4 0.1
0.8 0.4 0.1
0.8 0.3 0
0.9 0.3 0
0.8 0.4 0
0.9 0.4 0
0.8 0.3 0.1
0.9 0.3 0.1
0.8 0.4 0.1
0.9 0.4 0.1
0.9 0.3 0
1 0.3 0
0.9 0.4 0
1 0.4 0
0.9 0.3 0.1
1 0.3 0.1
0.9 0.4 0.1
1 0.4 0.1
0 0.4 0
0.1 0.4 0
0 0.5 0
0.1 0.5 0
0 0.4 0.1
0.1 0.4 0.1
0 0.5 0.1
0.1 0.5 0.1
0.1 0.4 0
0.2 0.4 0
0.1 0.5 0
0.2 0.5 0
0.1 0.4 0.1
0.2 0.4 0.1
0.1 0.5 0.1
0.2 0.5 0.1
0.2 0.4 0
0.3 0.4 0
0.2 0.5 0
0.3 0.5 0
0.2 0.4 0.1
0.3 0.4 0.1
0.2 0.5 0.1
0.3 0.5 0.1
0.3 0.4 0
0.4 0.4 0
0.3 0.5 0
0.4 0.5 0
0.3 0.4 0.1
0.4 0.4 0.1
0.3 0.5 0.1
0.4 0.5 0.1
0.4 0.4 0
0.5 0.4 0
0.4 0.5 0
0.5 0.5 0
0.4 0.4 0.1
0.5 0.4 0.1
0.4 0.5 0.1
0.5 0.5 0.1
0.5 0.4 0
0.6 0.4 0
0.5 0.5 0
0.6 0.5 0
0.5 0.4 0.1
0.6 0.4 0.1
0.5 0.5 0.1
0.6 0.5 0.1
0.6 0.4 0
0.7 0.4 0
0.6 0.5 0
0.7 0.5 0
0.6 0.4 0.1
0.7 0.4 0.1
0.6 0.5 0.1
0.7 0.5 0.1
0.7 0.4 0
0.8 0.4 0
0.7 0.5 0
0.8 0.5 0
0.7 0.4 0.1
0.8 0.4 0.1
0.7 0.5 0.1
0.8 0.5 0.1
0.8 0.4 0
0.9 0.4 0
0.8 0.5 0
0.9 0.5 0
0.8 0.4 0.1
0.9 0.4 0.1
0.8 0.5 0.1
0.9 0.5 0.1
0.9 0.4 0
1 0.4 0
0.9 0.5 0
1 0.5 0
0.9 0.4 0.1
1 0.4 0.1
0.9 0.5 0.1
1 0.5 0.1
0 0.5 0
0.1 0.5 0
0 0.6 0
0.1 0.6 0
0 0.5 0.1
0.1 0.5 0.1
0 0.6 0.1
0.1 0.6 0.1
0.1 0.5 0
0.2 0.5 0
0.1 0.6 0
0.2 0.6 0
0.1 0.5 0.1
0.2 0.5 0.1
0.1 0.6 0.1
0.2 0.6 0.1
0.2 0.5 0
0.3 0.5 0
0.2 0.6 0
0.3 0.6 0
0.2 0.5 0.1
0.3 0.5 0.1
0.2 0.6 0.1
0.3 0.6 0.1
0.3 0.5 0
0.4 0.5 0
0.3 0.6 0
0.4 0.6 0
0.3 0.5 0.1
0.4 0.5 0.1
0.3 0.6 0.1
0.4 0.6 0.1
0.4 0.5 0
0.5 0.5 0
0.4 0.6 0
0.5 0.6 0
0.4 0.5 0.1
0.5 0.5 0.1
0.4 0.6 0.1
0.5 0.6 0.1
0.5 0.5 0
0.6 0.5 0
0.5 0.6 0
0.6 0.6 0
0.5 0.5 0.1
0.6 0.5 0.1
0.5 0.6 0.1
0.6 0.6 0.1
0.6 0.5 0
0.7 0.5 0
0.6 0.6 0
0.7 0.6 0
0.6 0.5 0.1
0.7 0.5 0.1
0.6 0.6 0.1
0.7 0.6 0.1
0.7 0.5 0
0.8 0.5 0
0.7 0.6 0
0.8 0.6 0
0.7 0.5 0.1
0.8 0.5 0.1
0.7 0.6 0.1
0.8 0.6 0.1
0.8 0.5 0
0.9 0.5 0
0.8 0.6 0
0.9 0.6 0
0.8 0.5 0.1
0.9 0.5 0.1
0.8 0.6 0.1
0.9 0.6 0.1
0.9 0.5 0
1 0.5 0
0.9 0.6 0
1 0.6 0
0.9 0.5 0.1
1 0.5 0.1
0.9 0.6 0.1
1 0.6 0.1
0 0.6 0
0.1 0.6 0
0 0.7 0
0.1 0.7 0
0 0.6 0.1
0.1 0.6 0.1
0 0.7 0.1
0.1 0.7 0.1
0.1 0.6 0
0.2 0.6 0
0.1 0.7 0
0.2 0.7 0
0.1 0.6 0.1
0.2 0.6 0.1
0.1 0.7 0.1
0.2 0.7 0.1
0.2 0.6 0
0.3 0.6 0
0.2 0.7 0
0.3 0.7 0
0.2 0.6 0.1
0.3 0.6 0.1
0.2 0.7 0.1
0.3 0.7 0.1
0.3 0.6 0
0.4 0.6 0
0.3 0.7 0
0.4 0.7 0
0.3 0.6 0.1
0.4 0.6 0.1
0.3 0.7 0.1
0.4 0.7 0.1
0.4 0.6 0
0.5 0.6 0
0.4 0.7 0
0.5 0.7 0
0.4 0.6 0.1
0.5 0.6 0.1
0.4 0.7 0.1
0.5 0.7 0.1
0.5 0.6 0
0.6 0.6 0
0.5 0.7 0
0.6 0.7 0
0.5 0.6 0.1
0.6 0.6 0.1
0.5 0.7 0.1
0.6 0.7 0.1
0.6 0.6 0
0.7 0.6 0
0.6 0.7 0
0.7 0.7 0
0.6 0.6 0.1
0.7 0.6 0.1
0.6 0.7 0.1
0.7 0.7 0.1
0.7 0.6 0
0.8 0.6 0
0.7 0.7 0
0.8 0.7 0
0.7 0.6 0.1
0.8 0.6 0.1
0.7 0.7 0.1
0.8 0.7 0.1
0.8 0.6 0
0.9 0.6 0
0.8 0.7 0
0.9 0.7 0
0.8 0.6 0.1
0.9 0.6 0.1
0.8 0.7 0.1
0.9 0.7 0.1
0.9 0.6 0
1 0.6 0
0.9 0.7 0
1 0.7 0
0.9 0.6 0.1
1 0.6 0.1
0.9 0.7 0.1
1 0.7 0.1
0 0.7 0
0.1 0.7 0
0 0.8 0
0.1 0.8 0
0 0.7 0.1
0.1 0.7 0.1
0 0.8 0.1
0.1 0.8 0.1
0.1 0.7 0
0.2 0.7 0
0.1 0.8 0
0.2 0.8 0
0.1 0.7 0.1
0.2 0.7 0.1
0.1 0.8 0.1
0.2 0.8 0.1
0.2 0.7 0
0.3 0.7 0
0.2 0.8 0
0.3 0.8 0
0.2 0.7 0.1
0.3 0.7 0.1
0.2 0.8 0.1
0.3 0.8 0.1
0.3 0.7 0
0.4 0.7 0
0.3 0.8 0
0.4 0.8 0
0.3 0.7 0.1
0.4 0.7 0.1
0.3 0.8 0.1
0.4 0.8 0.1
0.4 0.7 0
0.5 0.7 0
0.4 0.8 0
0.5 0.8 0
0.4 0.7 0.1
0.5 0.7 0.1
0.4 0.8 0.1
0.5 0.8 0.1
0.5 0.7 0
0.6 0.7 0
0.5 0.8 0
0.6 0.8 0
0.5 0.7 0.1
0.6 0.7 0.1
0.5 0.8 0.1
0.6 0.8 0.1
0.6 0.7 0
0.7 0.7 0
0.6 0.8 0
0.7 0.8 0
0.6 0.7 0.1
0.7 0.7 0.1
0.6 0.8 0.1
0.7 0.8 0.1
0.7 0.7 0
0.8 0.7 0
0.7 0.8 0
0.8 0.8 0
0.7 0.7 0.1
0.8 0.7 0.1
0.7 0.8 0.1
0.8 0.8 0.1
0.8 0.7 0
0.9 0.7 0
0.8 0.8 0
0.9 0.8 0
0.8 0.7 0.1
0.9 0.7 0.1
0.8 0.8 0.1
0.9 0.8 0.1
0.9 0.7 0
1 0.7 0
0.9 0.8 0
1 0.8 0
0.9 0.7 0.1
1 0.7 0.1
0.9 0.8 0.1
1 0.8 0.1
0 0.8 0
0.1 0.8 0
0 0.9 0
0.1 0.9 0
0 0.8 0.1
0.1 0.8 0.1
0 0.9 0.1
0.1 0.9 0.1
0.1 0.8 0
0.2 0.8 0
0.1 0.9 0
0.2 0.9 0
0.1 0.8 0.1
0.2 0.8 0.1
0.1 0.9 0.1
0.2 0.9 0.1
0.2 0.8 0
0.3 0.8 0
0.2 0.9 0
0.3 0.9 0
0.2 0.8 0.1
0.3 0.8 0.1
0.2 0.9 0.1
0.3 0.9 0.1
0.3 0.8 0
0.4 0.8 0
0.3 0.9 0
0.4 0.9 0
0.3 0.8 0.1
0.4 0.8 0.1
0.3 0.9 0.1
0.4 0.9 0.1
0.4 0.8 0
0.5 0.8 0
0.4 0.9 0
0.5 0.9 0
0.4 0.8 0.1
0.5 0.8 0.1
0.4 0.9 0.1
0.5 0.9 0.1
0.5 0.8 0
0.6 0.8 0
0.5 0.9 0
0.6 0.9 0
0.5 0.8 0.1
0.6 0.8 0.1
0.5 0.9 0.1
0.6 0.9 0.1
0.6 0.8 0
0.7 0.8 0
0.6 0.9 0
0.7 0.9 0
0.6 0.8 0.1
0.7 0.8 0.1
0.6 0.9 0.1
0.7 0.9 0.1
0.7 0.8 0
0.8 0.8 0
0.7 0.9 0
0.8 0.9 0
0.7 0.8 0.1
0.8 0.8 0.1
0.7 0.9 0.1
0.8 0.9 0.1
0.8 0.8 0
0.9 0.8 0
0.8 0.9 0
0.9 0.9 0
0.8 0.8 0.1
0.9 0.8 0.1
0.8 0.9 0.1
0.9 0.9 0.1
0.9 0.8 0
1 0.8 0
0.9 0.9 0
1 0.9 0
0.9 0.8 0.1
1 0.8 0.1
0.9 0.9 0.1
1 0.9 0.1
0 0.9 0
0.1 0.9 0
0 1 0
0.1 1 0
0 0.9 0.1
0.1 0.9 0.1
0 1 0.1
0.1 1 0.1
0.1 0.9 0
0.2 0.9 0
0.1 1 0
0.2 1 0
0.1 0.9 0.1
0.2 0.9 0.1
0.1 1 0.1
0.2 1 0.1
0.2 0.9 0
0.3 0.9 0
0.2 1 0
0.3 1 0
0.2 0.9 0.1
0.3 0.9 0.1
0.2 1 0.1
0.3 1 0.1
0.3 0.9 0
0.4 0.9 0
0.3 1 0
0.4 1 0
0.3 0.9 0.1
0.4 0.9 0.1
0.3 1 0.1
0.4 1 0.1
0.4 0.9 0
0.5 0.9 0
0.4 1 0
0.5 1 0
0.4 0.9 0.1
0.5 0.9 0.1
0.4 1 0.1
0.5 1 0.1
0.5 0.9 0
0.6 0.9 0
0.5 1 0
0.6 1 0
0.5 0.9 0.1
0.6 0.9 0.1
0.5 1 0.1
0.6 1 0.1
0.6 0.9 0
0.7 0.9 0
0.6 1 0
0.7 1 0
0.6 0.9 0.1
0.7 0.9 0.1
0.6 1 0.1
0.7 1 0.1
0.7 0.9 0
0.8 0.9 0
0.7 1 0
0.8 1 0
0.7 0.9 0.1
0.8 0.9 0.1
0.7 1 0.1
0.8 1 0.1
0.8 0.9 0
0.9 0.9 0
0.8 1 0
0.9 1 0
0.8 0.9 0.1
0.9 0.9 0.1
0.8 1 0.1
0.9 1 0.1
0.9 0.9 0
1 0.9 0
0.9 1 0
1 1 0
0.9 0.9 0.1
1 0.9 0.1
0.9 1 0.1
1 1 0.1
0 0 0.1
0.1 0 0.1
0 0.1 0.1
0.1 0.1 0.1
0 0 0.2
0.1 0 0.2
0 0.1 0.2
0.1 0.1 0.2
0.1 0 0.1
0.2 0 0.1
0.1 0.1 0.1
0.2 0.1 0.1
0.1 0 0.2
0.2 0 0.2
0.1 0.1 0.2
0.2 0.1 0.2
0.2 0 0.1
0.3 0 0.1
0.2 0.1 0.1
0.3 0.1 0.1
0.2 0 0.2
0.3 0 0.2
0.2 0.1 0.2
0.3 0.1 0.2
0.3 0 0.1
0.4 0 0.1
0.3 0.1 0.1
0.4 0.1 0.1
0.3 0 0.2
0.4 0 0.2
0.3 0.1 0.2
0.4 0.1 0.2
0.4 0 0.1
0.5 0 0.1
0.4 0.1 0.1
0.5 0.1 0.1
0.4 0 0.2
0.5 0 0.2
0.4 0.1 0.2
0.5 0.1 0.2
0.5 0 0.1
0.6 0 0.1
0.5 0.1 0.1
0.6 0.1 0.1
0.5 0 0.2
0.6 0 0.2
0.5 0.1 0.2
0.6 0.1 0.2
0.6 0 0.1
0.7 0 0.1
0.6 0.1 0.1
0.7 0.1 0.1
0.6 0 0.2
0.7 0 0.2
0.6 0.1 0.2
0.7 0.1 0.2
0.7 0 0.1
0.8 0 0.1
0.7 0.1 0.1
0.8 0.1 0.1
0.7 0 0.2
0.8 0 0.2
0.7 0.1 0.2
0.8 0.1 0.2
0.8 0 0.1
0.9 0 0.1
0.8 0.1 0.1
0.9 0.1 0.1
0.8 0 0.2
0.9 0 0.2
0.8 0.1 0.2
0.9 0.1 0.2
0.9 0 0.1
1 0 0.1
0.9 0.1 0.1
1 0.1 0.1
0.9 0 0.2
1 0 0.2
0.9 0.1 0.2
1 0.1 0.2
0 0.1 0.1
0.1 0.1 0.1
0 0.2 0.1
0.1 0.2 0.1
0 0.1 0.2
0.1 0.1 0.2
0 0.2 0.2
0.1 0.2 0.2
0.1 0.1 0.1
0.2 0.1 0.1
0.1 0.2 0.1
0.2 0.2 0.1
0.1 0.1 0.2
0.2 0.1 0.2
0.1 0.2 0.2
0.2 0.2 0.2
0.2 0.1 0.1
0.3 0.1 0.1
0.2 0.2 0.1
0.3 0.2 0.1
0.2 0.1 0.2
0.3 0.1 0.2
0.2 0.2 0.2
0.3 0.2 0.2
0.3 0.1 0.1
0.4 0.1 0.1
0.3 0.2 0.1
0.4 0.2 0.1
0.3 0.1 0.2
0.4 0.1 0.2
0.3 0.2 0.2
0.4 0.2 0.2
0.4 0.1 0.1
0.5 0.1 0.1
0.4 0.2 0.1
0.5 0.2 0.1
0.4 0.1 0.2
0.5 0.1 0.2
0.4 0.2 0.2
0.5 0.2 0.2
0.5 0.1 0.1
0.6 0.1 0.1
[...]
POINT_DATA 8000
VECTORS u double
0 0 0
1.65153e-05 0.00386674 -0.0038896
0 0 0
-0.00214014 0.00409586 -0.00343427
0 0 0
0.00218013 0.00341103 -0.00413978
0 0 0
2.4682e-05 0.00337104 -0.00341333
1.65153e-05 0.00386674 -0.0038896
6.65081e-05 0.00925596 -0.00930799
-0.00214014 0.00409586 -0.00343427
-0.00280201 0.00932525 -0.00758758
0.00218013 0.00341103 -0.00413978
0.00292885 0.0075325 -0.00941347
2.4682e-05 0.00337104 -0.00341333
6.22203e-05 0.00752792 -0.00761337
6.65081e-05 0.00925596 -0.00930799
0.000151961 0.0147454 -0.0148132
-0.00280201 0.00932525 -0.00758758
-0.00295338 0.014748 -0.0119088
0.00292885 0.0075325 -0.00941347
0.00321951 0.0118349 -0.0148726
6.22203e-05 0.00752792 -0.00761337
0.000117023 0.011826 -0.0119461
0.000151961 0.0147454 -0.0148132
0.000285998 0.0201975 -0.0202531
-0.00295338 0.014748 -0.0119088
-0.00291251 0.0201649 -0.0162287
0.00321951 0.0118349 -0.0148726
0.00339124 0.0161619 -0.020307
0.000117023 0.011826 -0.0119461
0.000197137 0.0161379 -0.0162732
0.000285998 0.0201975 -0.0202531
0.000490014 0.0256223 -0.0256123
-0.00291251 0.0201649 -0.0162287
-0.00276936 0.0255614 -0.0205023
0.00339124 0.0161619 -0.020307
0.00356358 0.0204922 -0.0256796
0.000197137 0.0161379 -0.0162732
0.000310724 0.0204493 -0.0205575
0.000490014 0.0256223 -0.0256123
0.000791614 0.03106 -0.0308856
-0.00276936 0.0255614 -0.0205023
-0.00254295 0.0309692 -0.0247084
0.00356358 0.0204922 -0.0256796
0.00378928 0.0248479 -0.0309778
0.000310724 0.0204493 -0.0205575
0.000463778 0.0247841 -0.0247789
0.000791614 0.03106 -0.0308856
0.00122249 0.0365655 -0.0360488
-0.00254295 0.0309692 -0.0247084
-0.0022303 0.0364413 -0.0288166
0.00378928 0.0248479 -0.0309778
0.00409527 0.0292734 -0.0361729
0.000463778 0.0247841 -0.0247789
0.000653694 0.0291894 -0.0289039
0.00122249 0.0365655 -0.0360488
0.00181597 0.0422192 -0.0410416
-0.0022303 0.0364413 -0.0288166
-0.00182954 0.0420616 -0.0327664
0.00409527 0.0292734 -0.0361729
0.00449038 0.0338411 -0.0411989
0.000653694 0.0291894 -0.0289039
0.000853966 0.0337445 -0.0328645
0.00181597 0.0422192 -0.0410416
0.00260704 0.0481781 -0.0457187
-0.00182954 0.0420616 -0.0327664
-0.00135438 0.0479881 -0.0364177
0.00449038 0.0338411 -0.0411989
0.00496225 0.0386991 -0.0459084
0.000853966 0.0337445 -0.0328645
0.000986174 0.0386032 -0.0365142
0.00260704 0.0481781 -0.0457187
0.00347962 0.0550033 -0.0495252
-0.00135438 0.0479881 -0.0364177
-0.000782199 0.0544555 -0.0390723
0.00496225 0.0386991 -0.0459084
0.00553339 0.0445504 -0.050073
0.000986174 0.0386032 -0.0365142
0.00120637 0.0440026 -0.0396201
0 0 0
-0.00214014 0.00409586 -0.00343427
0 0 0
-0.00215272 0.00459792 -0.00275504
0 0 0
2.4682e-05 0.00337104 -0.00341333
0 0 0
-0.000461246 0.0036956 -0.00258754
-0.00214014 0.00409586 -0.00343427
-0.00280201 0.00932525 -0.00758758
-0.00215272 0.00459792 -0.00275504
-0.00311808 0.00962182 -0.00580093
2.4682e-05 0.00337104 -0.00341333
6.22203e-05 0.00752792 -0.00761337
-0.000461246 0.0036956 -0.00258754
-0.000881901 0.00772851 -0.0057516
-0.00280201 0.00932525 -0.00758758
-0.00295338 0.014748 -0.0119088
-0.00311808 0.00962182 -0.00580093
-0.00351892 0.0148844 -0.00899431
6.22203e-05 0.00752792 -0.00761337
0.000117023 0.011826 -0.0119461
-0.000881901 0.00772851 -0.0057516
-0.00109129 0.011927 -0.00899959
-0.00295338 0.014748 -0.0119088
-0.00291251 0.0201649 -0.0162287
-0.00351892 0.0148844 -0.00899431
-0.00363391 0.0202129 -0.0122154
0.000117023 0.011826 -0.0119461
0.000197137 0.0161379 -0.0162732
-0.00109129 0.011927 -0.00899959
-0.00115872 0.0161792 -0.012244
-0.00291251 0.0201649 -0.0162287
-0.00276936 0.0255614 -0.0205023
-0.00363391 0.0202129 -0.0122154
-0.0035991 0.0255605 -0.0154151
0.000197137 0.0161379 -0.0162732
0.000310724 0.0204493 -0.0205575
-0.00115872 0.0161792 -0.012244
-0.00114441 0.0204555 -0.0154575
-0.00276936 0.0255614 -0.0205023
-0.00254295 0.0309692 -0.0247084
-0.0035991 0.0255605 -0.0154151
-0.00346952 0.0309376 -0.0185654
0.000310724 0.0204493 -0.0205575
0.000463778 0.0247841 -0.0247789
-0.00114441 0.0204555 -0.0154575
-0.00108207 0.024768 -0.0186192
-0.00254295 0.0309692 -0.0247084
-0.0022303 0.0364413 -0.0288166
-0.00346952 0.0309376 -0.0185654
-0.00326017 0.0363862 -0.0216309
0.000463778 0.0247841 -0.0247789
0.000653694 0.0291894 -0.0289039
-0.00108207 0.024768 -0.0186192
-0.000993866 0.0291561 -0.0216932
-0.0022303 0.0364413 -0.0288166
-0.00182954 0.0420616 -0.0327664
-0.00326017 0.0363862 -0.0216309
-0.00296344 0.0419792 -0.0245441
0.000653694 0.0291894 -0.0289039
0.000853966 0.0337445 -0.0328645
-0.000993866 0.0291561 -0.0216932
-0.000904897 0.0336871 -0.0246047
-0.00182954 0.0420616 -0.0327664
-0.00135438 0.0479881 -0.0364177
-0.00296344 0.0419792 -0.0245441
-0.00253153 0.0478147 -0.0271326
0.000853966 0.0337445 -0.0328645
0.000986174 0.0386032 -0.0365142
-0.000904897 0.0336871 -0.0246047
-0.00083828 0.0384499 -0.027185
-0.00135438 0.0479881 -0.0364177
-0.000782199 0.0544555 -0.0390723
-0.00253153 0.0478147 -0.0271326
-0.00192496 0.0539077 -0.0286195
0.000986174 0.0386032 -0.0365142
0.00120637 0.0440026 -0.0396201
-0.00083828 0.0384499 -0.027185
-0.000607634 0.0434548 -0.0291673
0 0 0
-0.00215272 0.00459792 -0.00275504
0 0 0
-0.00161363 0.00499971 -0.00191805
0 0 0
-0.000461246 0.0036956 -0.00258754
0 0 0
-0.000463747 0.00400299 -0.00174439
-0.00215272 0.00459792 -0.00275504
-0.00311808 0.00962182 -0.00580093
-0.00161363 0.00499971 -0.00191805
-0.00243248 0.00997278 -0.00393652
-0.000461246 0.0036956 -0.00258754
-0.000881901 0.00772851 -0.0057516
-0.000463747 0.00400299 -0.00174439
-0.000921754 0.00800389 -0.00386595
-0.00311808 0.00962182 -0.00580093
-0.00351892 0.0148844 -0.00899431
-0.00243248 0.00997278 -0.00393652
-0.00285232 0.0151006 -0.00605148
-0.000881901 0.00772851 -0.0057516
-0.00109129 0.011927 -0.00899959
-0.000921754 0.00800389 -0.00386595
-0.00120381 0.0121032 -0.00603994
-0.00351892 0.0148844 -0.00899431
-0.00363391 0.0202129 -0.0122154
-0.00285232 0.0151006 -0.00605148
-0.00302856 0.0203306 -0.00819582
-0.00109129 0.011927 -0.00899959
-0.00115872 0.0161792 -0.012244
-0.00120381 0.0121032 -0.00603994
-0.00134293 0.0162795 -0.00821219
-0.00363391 0.0202129 -0.0122154
-0.0035991 0.0255605 -0.0154151
-0.00302856 0.0203306 -0.00819582
-0.00306028 0.0256195 -0.0103307
-0.00115872 0.0161792 -0.012244
-0.00114441 0.0204555 -0.0154575
-0.00134293 0.0162795 -0.00821219
-0.00139387 0.0205083 -0.0103619
-0.0035991 0.0255605 -0.0154151
-0.00346952 0.0309376 -0.0185654
-0.00306028 0.0256195 -0.0103307
-0.00299527 0.030959 -0.0124271
-0.00114441 0.0204555 -0.0154575
-0.00108207 0.024768 -0.0186192
-0.00139387 0.0205083 -0.0103619
-0.00139365 0.0247877 -0.0124677
-0.00346952 0.0309376 -0.0185654
-0.00326017 0.0363862 -0.0216309
-0.00299527 0.030959 -0.0124271
-0.0028414 0.0363695 -0.0144441
-0.00108207 0.024768 -0.0186192
-0.000993866 0.0291561 -0.0216932
-0.00139365 0.0247877 -0.0124677
-0.00136214 0.0291381 -0.0144893
-0.00326017 0.0363862 -0.0216309
-0.00296344 0.0419792 -0.0245441
-0.0028414 0.0363695 -0.0144441
-0.00257218 0.0418923 -0.0163021
-0.000993866 0.0291561 -0.0216932
-0.000904897 0.0336871 -0.0246047
-0.00136214 0.0291381 -0.0144893
-0.00130956 0.0335965 -0.0163424
-0.00296344 0.0419792 -0.0245441
-0.00253153 0.0478147 -0.0271326
-0.00257218 0.0418923 -0.0163021
-0.00212097 0.0475643 -0.0178057
-0.000904897 0.0336871 -0.0246047
-0.00083828 0.0384499 -0.027185
-0.00130956 0.0335965 -0.0163424
-0.00124066 0.0381948 -0.0178421
-0.00253153 0.0478147 -0.0271326
-0.00192496 0.0539077 -0.0286195
-0.00212097 0.0475643 -0.0178057
-0.00148817 0.0533599 -0.0181666
-0.00083828 0.0384499 -0.027185
-0.000607634 0.0434548 -0.0291673
-0.00124066 0.0381948 -0.0178421
-0.000995059 0.042907 -0.0187145
0 0 0
-0.00161363 0.00499971 -0.00191805
0 0 0
-0.000858333 0.00524848 -0.000992584
0 0 0
-0.000463747 0.00400299 -0.00174439
0 0 0
-0.000272877 0.00420374 -0.000890706
-0.00161363 0.00499971 -0.00191805
-0.00243248 0.00997278 -0.00393652
-0.000858333 0.00524848 -0.000992584
-0.0013162 0.0102351 -0.0020119
-0.000463747 0.00400299 -0.00174439
-0.000921754 0.00800389 -0.00386595
-0.000272877 0.00420374 -0.000890706
-0.000553193 0.00821962 -0.00196807
-0.00243248 0.00997278 -0.00393652
-0.00285232 0.0151006 -0.00605148
-0.0013162 0.0102351 -0.0020119
-0.00157365 0.0152946 -0.00307739
-0.000921754 0.00800389 -0.00386595
-0.00120381 0.0121032 -0.00603994
-0.000553193 0.00821962 -0.00196807
-0.000743919 0.0122662 -0.00307084
-0.00285232 0.0151006 -0.00605148
-0.00302856 0.0203306 -0.00819582
-0.00157365 0.0152946 -0.00307739
-0.00169573 0.0204588 -0.00415891
-0.00120381 0.0121032 -0.00603994
-0.00134293 0.0162795 -0.00821219
-0.000743919 0.0122662 -0.00307084
-0.000854117 0.0163887 -0.0041723
-0.00302856 0.0203306 -0.00819582
-0.00306028 0.0256195 -0.0103307
-0.00169573 0.0204588 -0.00415891
-0.00172484 0.0257014 -0.00523235
-0.00134293 0.0162795 -0.00821219
-0.00139387 0.0205083 -0.0103619
-0.000854117 0.0163887 -0.0041723
-0.00090976 0.0205767 -0.00525737
-0.00306028 0.0256195 -0.0103307
-0.00299527 0.030959 -0.0124271
-0.00172484 0.0257014 -0.00523235
-0.0016769 0.0310015 -0.00627128
-0.00139387 0.0205083 -0.0103619
-0.00139365 0.0247877 -0.0124677
-0.00090976 0.0205767 -0.00525737
-0.000928625 0.0248177 -0.00630383
-0.00299527 0.030959 -0.0124271
-0.0028414 0.0363695 -0.0144441
-0.0016769 0.0310015 -0.00627128
-0.00153896 0.0363564 -0.00723157
-0.00139365 0.0247877 -0.0124677
-0.00136214 0.0291381 -0.0144893
-0.000928625 0.0248177 -0.00630383
-0.000915895 0.0291113 -0.0072672
-0.0028414 0.0363695 -0.0144441
-0.00257218 0.0418923 -0.0163021
-0.00153896 0.0363564 -0.00723157
-0.00126905 0.0417764 -0.00802569
-0.00136214 0.0291381 -0.0144893
-0.00130956 0.0335965 -0.0163424
-0.000915895 0.0291113 -0.0072672
-0.000869215 0.0334667 -0.00805635
-0.00257218 0.0418923 -0.0163021
-0.00212097 0.0475643 -0.0178057
-0.00126905 0.0417764 -0.00802569
-0.000799114 0.0472681 -0.0084491
-0.00130956 0.0335965 -0.0163424
-0.00124066 0.0381948 -0.0178421
-0.000869215 0.0334667 -0.00805635
-0.000790758 0.037889 -0.00847906
-0.00212097 0.0475643 -0.0178057
-0.00148817 0.0533599 -0.0181666
-0.000799114 0.0472681 -0.0084491
-0.000153338 0.052812 -0.00771379
-0.00124066 0.0381948 -0.0178421
-0.000995059 0.042907 -0.0187145
-0.000790758 0.037889 -0.00847906
-0.000537007 0.0423592 -0.0082616
0 0 0
-0.000858333 0.00524848 -0.000992584
0 0 0
-1.48977e-05 0.00534267 -2.638e-05
0 0 0
-0.000272877 0.00420374 -0.000890706
0 0 0
-3.89013e-06 0.00428174 -3.0381e-05
-0.000858333 0.00524848 -0.000992584
-0.0013162 0.0102351 -0.0020119
-1.48977e-05 0.00534267 -2.638e-05
-2.15805e-05 0.0103483 -5.36496e-05
-0.000272877 0.00420374 -0.000890706
-0.000553193 0.00821962 -0.00196807
-3.89013e-06 0.00428174 -3.0381e-05
-1.36674e-05 0.00831498 -6.18898e-05
-0.0013162 0.0102351 -0.0020119
-0.00157365 0.0152946 -0.00307739
-2.15805e-05 0.0103483 -5.36496e-05
-2.42941e-05 0.0153953 -8.00057e-05
-0.000553193 0.00821962 -0.00196807
-0.000743919 0.0122662 -0.00307084
-1.36674e-05 0.00831498 -6.18898e-05
-2.69051e-05 0.012352 -9.28279e-05
-0.00157365 0.0152946 -0.00307739
-0.00169573 0.0204588 -0.00415891
-2.42941e-05 0.0153953 -8.00057e-05
-1.85628e-05 0.0205424 -0.00010274
-0.000743919 0.0122662 -0.00307084
-0.000854117 0.0163887 -0.0041723
-2.69051e-05 0.012352 -9.28279e-05
-4.18802e-05 0.0164591 -0.000120922
-0.00169573 0.0204588 -0.00415891
-0.00172484 0.0257014 -0.00523235
-1.85628e-05 0.0205424 -0.00010274
7.07343e-06 0.0257672 -0.000112759
-0.000854117 0.0163887 -0.0041723
-0.00090976 0.0205767 -0.00525737
-4.18802e-05 0.0164591 -0.000120922
-5.50938e-05 0.0206288 -0.000136924
-0.00172484 0.0257014 -0.00523235
-0.0016769 0.0310015 -0.00627128
7.07343e-06 0.0257672 -0.000112759
7.39194e-05 0.0310384 -8.87031e-05
-0.00090976 0.0205767 -0.00525737
-0.000928625 0.0248177 -0.00630383
-5.50938e-05 0.0206288 -0.000136924
-5.93255e-05 0.0248388 -0.000118381
-0.0016769 0.0310015 -0.00627128
-0.00153896 0.0363564 -0.00723157
7.39194e-05 0.0310384 -8.87031e-05
0.000217758 0.0363336 1.36604e-05
-0.000928625 0.0248177 -0.00630383
-0.000915895 0.0291113 -0.0072672
-5.93255e-05 0.0248388 -0.000118381
-4.27906e-05 0.0290709 -1.85048e-05
-0.00153896 0.0363564 -0.00723157
-0.00126905 0.0417764 -0.00802569
0.000217758 0.0363336 1.36604e-05
0.000493049 0.0416401 0.000284293
-0.000915895 0.0291113 -0.0072672
-0.000869215 0.0334667 -0.00805635
-4.27906e-05 0.0290709 -1.85048e-05
6.86596e-06 0.0333139 0.000256813
-0.00126905 0.0417764 -0.00802569
-0.000799114 0.0472681 -0.0084491
0.000493049 0.0416401 0.000284293
0.000970559 0.0469513 0.000930231
-0.000869215 0.0334667 -0.00805635
-0.000790758 0.037889 -0.00847906
6.86596e-06 0.0333139 0.000256813
9.01631e-05 0.0375617 0.000902224
-0.000799114 0.0472681 -0.0084491
-0.000153338 0.052812 -0.00771379
0.000970559 0.0469513 0.000930231
0.00162039 0.0522642 0.00273905
-0.000790758 0.037889 -0.00847906
-0.000537007 0.0423592 -0.0082616
9.01631e-05 0.0375617 0.000902224
0.00034665 0.0418114 0.00219124
0 0 0
-1.48977e-05 0.00534267 -2.638e-05
0 0 0
0.000835898 0.00528049 0.000943502
0 0 0
-3.89013e-06 0.00428174 -3.0381e-05
0 0 0
0.000271095 0.00423204 0.00083243
-1.48977e-05 0.00534267 -2.638e-05
-2.15805e-05 0.0103483 -5.36496e-05
0.000835898 0.00528049 0.000943502
0.00129005 0.0102913 0.00191064
-3.89013e-06 0.00428174 -3.0381e-05
-1.36674e-05 0.00831498 -6.18898e-05
0.000271095 0.00423204 0.00083243
0.000541091 0.00826926 0.0018491
-2.15805e-05 0.0103483 -5.36496e-05
-2.42941e-05 0.0153953 -8.00057e-05
0.00129005 0.0102913 0.00191064
0.00155478 0.0153724 0.00292676
-1.36674e-05 0.00831498 -6.18898e-05
-2.69051e-05 0.012352 -9.28279e-05
0.000541091 0.00826926 0.0018491
0.000717289 0.0123337 0.00289298
-2.42941e-05 0.0153953 -8.00057e-05
-1.85628e-05 0.0205424 -0.00010274
0.00155478 0.0153724 0.00292676
0.00170402 0.0205527 0.00396776
-2.69051e-05 0.012352 -9.28279e-05
-4.18802e-05 0.0164591 -0.000120922
0.000717289 0.0123337 0.00289298
0.000812376 0.016467 0.00394247
-1.85628e-05 0.0205424 -0.00010274
7.07343e-06 0.0257672 -0.000112759
0.00170402 0.0205527 0.00396776
0.00180202 0.025795 0.00502771
-4.18802e-05 0.0164591 -0.000120922
-5.50938e-05 0.0206288 -0.000136924
0.000812376 0.016467 0.00394247
0.000858605 0.0206481 0.00500107
7.07343e-06 0.0257672 -0.000112759
7.39194e-05 0.0310384 -8.87031e-05
0.00180202 0.025795 0.00502771
0.00190385 0.0310573 0.00612203
-5.50938e-05 0.0206288 -0.000136924
-5.93255e-05 0.0248388 -0.000118381
0.000858605 0.0206481 0.00500107
0.000885506 0.0248442 0.00609068
7.39194e-05 0.0310384 -8.87031e-05
0.000217758 0.0363336 1.36604e-05
0.00190385 0.0310573 0.00612203
0.00206221 0.036303 0.00729239
-5.93255e-05 0.0248388 -0.000118381
-4.27906e-05 0.0290709 -1.85048e-05
0.000885506 0.0248442 0.00609068
0.000916872 0.0290236 0.00725819
0.000217758 0.0363336 1.36604e-05
0.000493049 0.0416401 0.000284293
0.00206221 0.036303 0.00729239
0.00233877 0.0415007 0.00862665
-4.27906e-05 0.0290709 -1.85048e-05
6.86596e-06 0.0333139 0.000256813
0.000916872 0.0290236 0.00725819
0.000970314 0.0331583 0.00859697
0.000493049 0.0416401 0.000284293
0.000970559 0.0469513 0.000930231
0.00233877 0.0415007 0.00862665
0.00281041 0.0466334 0.0103302
6.86596e-06 0.0333139 0.000256813
9.01631e-05 0.0375617 0.000902224
0.000970314 0.0331583 0.00859697
0.00105087 0.0372335 0.0103007
0.000970559 0.0469513 0.000930231
0.00162039 0.0522642 0.00273905
0.00281041 0.0466334 0.0103302
0.00345645 0.0517164 0.0131919
9.01631e-05 0.0375617 0.000902224
0.00034665 0.0418114 0.00219124
0.00105087 0.0372335 0.0103007
0.00130505 0.0412636 0.0126441
0 0 0
0.000835898 0.00528049 0.000943502
0 0 0
0.00161077 0.00505341 0.00187835
0 0 0
0.000271095 0.00423204 0.00083243
0 0 0
0.000478012 0.00405109 0.00169236
0.000835898 0.00528049 0.000943502
0.00129005 0.0102913 0.00191064
0.00161077 0.00505341 0.00187835
0.00245215 0.0100686 0.00385084
0.000271095 0.00423204 0.00083243
0.000541091 0.00826926 0.0018491
0.000478012 0.00405109 0.00169236
0.000950716 0.00808963 0.00375924
0.00129005 0.0102913 0.00191064
0.00155478 0.0153724 0.00292676
0.00245215 0.0100686 0.00385084
0.00291452 0.0152343 0.00592548
0.000541091 0.00826926 0.0018491
0.000717289 0.0123337 0.00289298
0.000950716 0.00808963 0.00375924
0.00125138 0.012221 0.00588223
0.00155478 0.0153724 0.00292676
0.00170402 0.0205527 0.00396776
0.00291452 0.0152343 0.00592548
0.0031631 0.0204927 0.00804295
0.000717289 0.0123337 0.00289298
0.000812376 0.016467 0.00394247
0.00125138 0.012221 0.00588223
0.00141803 0.0164173 0.008014
0.00170402 0.0205527 0.00396776
0.00180202 0.025795 0.00502771
0.0031631 0.0204927 0.00804295
0.00331703 0.0257819 0.0101831
0.000812376 0.016467 0.00394247
0.000858605 0.0206481 0.00500107
0.00141803 0.0164173 0.008014
0.00151089 0.020635 0.0101528
0.00180202 0.025795 0.00502771
0.00190385 0.0310573 0.00612203
0.00331703 0.0257819 0.0101831
0.00345537 0.031056 0.012357
0.000858605 0.0206481 0.00500107
0.000885506 0.0248442 0.00609068
0.00151089 0.020635 0.0101528
0.00157271 0.0248361 0.0123198
0.00190385 0.0310573 0.00612203
0.00206221 0.036303 0.00729239
0.00345537 0.031056 0.012357
0.0036346 0.0362712 0.0146028
0.000885506 0.0248442 0.00609068
0.000916872 0.0290236 0.00725819
0.00157271 0.0248361 0.0123198
0.00162807 0.0289803 0.0145605
0.00206221 0.036303 0.00729239
0.00233877 0.0415007 0.00862665
0.0036346 0.0362712 0.0146028
0.00391081 0.0413775 0.0170022
0.000916872 0.0290236 0.00725819
0.000970314 0.0331583 0.00859697
0.00162807 0.0289803 0.0145605
0.00168875 0.0330219 0.0169637
0.00233877 0.0415007 0.00862665
0.00281041 0.0466334 0.0103302
0.00391081 0.0413775 0.0170022
0.00436317 0.0463349 0.0197528
0.000970314 0.0331583 0.00859697
0.00105087 0.0372335 0.0103007
0.00168875 0.0330219 0.0169637
0.00175989 0.0369256 0.0197173
0.00281041 0.0466334 0.0103302
0.00345645 0.0517164 0.0131919
0.00436317 0.0463349 0.0197528
0.00499596 0.0511686 0.0236447
0.00105087 0.0372335 0.0103007
0.00130505 0.0412636 0.0126441
0.00175989 0.0369256 0.0197173
0.00200589 0.0407158 0.0230969
0 0 0
0.00161077 0.00505341 0.00187835
0 0 0
0.00217442 0.00465577 0.00272588
0 0 0
0.000478012 0.00405109 0.00169236
0 0 0
0.000495815 0.00374881 0.00254219
0.00161077 0.00505341 0.00187835
0.00245215 0.0100686 0.00385084
0.00217442 0.00465577 0.00272588
0.00319694 0.00972867 0.00573348
0.000478012 0.00405109 0.00169236
0.000950716 0.00808963 0.00375924
0.000495815 0.00374881 0.00254219
0.000963919 0.00782692 0.00565858
0.00245215 0.0100686 0.00385084
0.00291452 0.0152343 0.00592548
0.00319694 0.00972867 0.00573348
0.0036892 0.0150354 0.00889832
0.000950716 0.00808963 0.00375924
0.00125138 0.012221 0.00588223
0.000963919 0.00782692 0.00565858
0.00123787 0.0120644 0.00886528
0.00291452 0.0152343 0.00592548
0.0031631 0.0204927 0.00804295
0.0036892 0.0150354 0.00889832
0.00394364 0.0203951 0.0121109
0.00125138 0.012221 0.00588223
0.00141803 0.0164173 0.008014
0.00123787 0.0120644 0.00886528
0.00139619 0.0163398 0.012084
0.0031631 0.0204927 0.00804295
0.00331703 0.0257819 0.0101831
0.00394364 0.0203951 0.0121109
0.00411802 0.0257388 0.0153427
0.00141803 0.0164173 0.008014
0.00151089 0.020635 0.0101528
0.00139619 0.0163398 0.012084
0.00150716 0.0206013 0.0153077
0.00331703 0.0257819 0.0101831
0.00345537 0.031056 0.012357
0.00411802 0.0257388 0.0153427
0.00429354 0.0310326 0.0186056
0.00151089 0.020635 0.0101528
0.00157271 0.0248361 0.0123198
0.00150716 0.0206013 0.0153077
0.00160736 0.0248167 0.0185581
0.00345537 0.031056 0.012357
0.0036346 0.0362712 0.0146028
0.00429354 0.0310326 0.0186056
0.00451419 0.0362364 0.0219376
0.00157271 0.0248361 0.0123198
0.00162807 0.0289803 0.0145605
0.00160736 0.0248167 0.0185581
0.00170867 0.028946 0.0218793
0.0036346 0.0362712 0.0146028
0.00391081 0.0413775 0.0170022
0.00451419 0.0362364 0.0219376
0.00481137 0.0412839 0.0254116
0.00162807 0.0289803 0.0145605
0.00168875 0.0330219 0.0169637
0.00170867 0.028946 0.0218793
0.00180131 0.0329252 0.0253533
0.00391081 0.0413775 0.0170022
0.00436317 0.0463349 0.0197528
0.00481137 0.0412839 0.0254116